   * xtb version 6.6.0 (27203a8) compiled by 'fiszczyp@arinto' on 2023-07-22
          program call               : xtb 4p4_dioxane.xyz --opt --gfn 2 --alpb chcl3 --cycles 10000

   ID    Z sym.   atoms
    1    6 C      1-56, 129, 130, 132, 133
    2   35 Br     57-60
    3    7 N      61-68
    4    1 H      69-128, 135-142
    5    8 O      131, 134

      * Solvation model:               ALPB
        Solvent                        chcl3
        Solvent mass                       1.1938E+02 g/mol
          :  Hamiltonian                  GFN2-xTB          :
 * total energy  :  -211.0210048 Eh     change       -0.2041020E-08 Eh
 * total energy  :  -211.0625496 Eh     change       -0.4154478E-01 Eh
 * total energy  :  -211.0800568 Eh     change       -0.1750718E-01 Eh
 * total energy  :  -211.0924908 Eh     change       -0.1243402E-01 Eh
 * total energy  :  -211.1004941 Eh     change       -0.8003307E-02 Eh
 * total energy  :  -211.1057337 Eh     change       -0.5239630E-02 Eh
 * total energy  :  -211.1092553 Eh     change       -0.3521578E-02 Eh
 * total energy  :  -211.1117526 Eh     change       -0.2497260E-02 Eh
 * total energy  :  -211.1134928 Eh     change       -0.1740231E-02 Eh
 * total energy  :  -211.1147034 Eh     change       -0.1210542E-02 Eh
 * total energy  :  -211.1250555 Eh     change       -0.1175371E-04 Eh
 * total energy  :  -211.1250657 Eh     change       -0.1026215E-04 Eh
 * total energy  :  -211.1250742 Eh     change       -0.8491109E-05 Eh
 * total energy  :  -211.1250832 Eh     change       -0.9039736E-05 Eh
 * total energy  :  -211.1250937 Eh     change       -0.1042963E-04 Eh
 * total energy  :  -211.1251034 Eh     change       -0.9769244E-05 Eh
 * total energy  :  -211.1251107 Eh     change       -0.7246901E-05 Eh
 * total energy  :  -211.1251161 Eh     change       -0.5431574E-05 Eh
 * total energy  :  -211.1251211 Eh     change       -0.4988527E-05 Eh
   *** GEOMETRY OPTIMIZATION CONVERGED AFTER 137 ITERATIONS ***

 final structure:
================
142
 xtb: 6.6.0 (27203a8)
C           -1.68642412152060       -7.12810214449193        5.01312603742091
C           -1.23652326063921       -6.47186090984751        6.31419051987155
C           -3.82595633024108       -4.50607282054089       -6.72121576968123
C           -2.47050676087845       -4.98467389677139       -7.23044808262570
C           -1.13254554213892        6.23358251355769        6.67227584442082
C           -2.28851494333038        6.56925113470956        5.73624512237557
C            4.71335841057812        5.39441611473894       -5.73594421356303
C            4.39691419724772        6.35333091365506       -4.59322794488138
C           -2.30161760594567       -6.09153033338874        4.08034866445724
C           -0.24515040158919       -5.35036361076773        6.02758589838372
C           -3.79366020347054       -4.33588132766927       -5.20696584733206
C           -1.37559840798264       -4.00671349135001       -6.82118929915073
C           -0.72457356019326        4.77455623181682        6.50734684319933
C           -1.90171211991255        6.27650465621782        4.29176498238108
C            4.68382151712954        3.95316231426186       -5.24149661420762
C            3.03972835749075        6.02210893537294       -3.98441224816558
C           -2.42368328906276       -3.08732092392766       -0.50801887435992
C            0.53665201748071        0.28547981291751        4.81170428752442
C            1.59106442225684       -0.86598307035361       -4.30089072216245
C           -0.20949008238490        4.10337432566465        0.07810347223403
C           -3.04460438880939       -1.85639030556413        1.46564915092894
C            2.17935007417632       -1.41208499647384        4.34325248534045
C           -3.61253288621620       -1.00430610047206       -0.72236403987277
C            2.75933892759556        0.92248736812269        4.14045965001273
C            2.72707020925904       -2.60021835630763       -3.07570974643237
C           -2.46755850600531        3.37201817136697       -0.33472301691681
C            3.65955960275629       -0.37478384366335       -3.16553497195851
C           -0.88583365727674        3.50408931560739       -2.15538319460246
C           -1.77289932617633       -3.95334798895844        1.71924507101450
C           -0.10304874023580       -2.09224887406883        5.00303927091639
C           -3.01134407879934       -2.22805077385825       -2.76442135192202
C            1.11222554864009        2.68984852364292        4.60554323053330
C            0.61609434077522       -3.14831965182780       -4.21326942120979
C           -1.83824900389005        3.99624329511029        1.95548999276596
C            2.53215786564812        1.41447379775333       -4.44677896919690
C            1.44178140112987        4.22475398363807       -1.76271165662975
C           -2.42799781698936       -2.96197988441559        0.87608550260917
C            0.88184512251995       -1.05744947828626        4.71987919323582
C           -3.01618475270069       -2.11706419937363       -1.31288997402970
C            1.46727873250155        1.28069731969807        4.51976357738789
C            1.65162911618383       -2.18719402798151       -3.86096349772820
C           -1.49055576138647        3.82498090229566        0.55085565404376
C            2.58766039157642        0.04193976388314       -3.96025861117634
C            0.09896368493178        3.94666603858253       -1.26876162529103
C           -3.61671096032685       -0.90024967440119        0.65559936654163
C            3.08948737615217       -0.41719206279085        4.05899537942690
C            3.71034811411808       -1.68593781902185       -2.74051759332642
C           -2.14445680667647        3.21985039753379       -1.67058777576457
C           -1.30190503722216       -4.96751991444940        3.77717441737258
C           -0.85797796168728       -4.30212386184083        5.09435494753285
C           -2.70070634669350       -3.34505354510435       -4.78888760591972
C           -1.33168434721942       -3.83739815105558       -5.29909310021259
C           -0.33028273024559        4.47093478768955        5.05721785633052
C           -1.50365953220283        4.80475012233177        4.11735790902667
C            3.32425277291002        3.60777384205117       -4.62671120077181
C            3.00666814821797        4.57710745167434       -3.47022558629925
Br          -4.40868134335687        0.63226794080364        1.46654184362465
Br           4.85749725503396       -0.90143018095503        3.51751088687787
Br           5.17923742438745       -2.26452709883168       -1.65336448440192
Br          -3.47607059533946        2.56450934315512       -2.87218371064410
N           -1.94810557190729       -3.97632221410979        2.96916008482460
N            0.13531668059372       -3.31467451027887        4.79790436299267
N           -2.65974655732034       -3.28496274695345       -3.35813051151664
N           -0.03831193704891        3.07340408582822        4.95467385130919
N           -0.34516896064257       -2.85304081980346       -4.97494860256635
N           -1.08457952149808        4.61020170507550        2.76097440616867
N            3.38832137140469        2.27638209603316       -4.10492931698819
N            1.68636861888493        4.28943386121799       -2.99886431977676
H           -0.82773442272422       -7.59336545749552        4.52385682923643
H           -2.42051301973859       -7.90861819831496        5.22140918176334
H           -0.76902209550639       -7.21288510222297        6.96481591202531
H           -2.10557773575161       -6.06472042965592        6.83591742006978
H           -4.07446662506555       -3.55076700959087       -7.18869370892395
H           -4.60233022076592       -5.22511130224548       -6.98869448564096
H           -2.25234459889527       -5.97067380243468       -6.81392431325997
H           -2.48896765374580       -5.07447169808718       -8.31800290362041
H           -0.28052818786448        6.87822300382588        6.44487170434302
H           -1.42486725163074        6.41359004370293        7.70831379253772
H           -2.55611845796002        7.62291435906056        5.83336673632465
H           -3.16206175772987        5.97204729167947        6.00646955943165
H            5.69907820187334        5.61610734752437       -6.14861651574567
H            3.97717916042965        5.52159560340453       -6.53284963638589
H            4.38863002805714        7.38212699614152       -4.95787010567418
H            5.16965229884454        6.27288187361454       -3.82541949263771
H           -2.60274278479874       -6.55461555037487        3.13766816941318
H           -3.18978573060574       -5.65148310408293        4.53808231453459
H            0.05611452889089       -4.86065748850911        6.95583838516684
H            0.65225514009273       -5.75036717839530        5.55256579971258
H           -3.59507899105506       -5.29366270858199       -4.72258247514993
H           -4.75534630197402       -3.96744227153964       -4.84329968746174
H           -1.55488405256318       -3.02849174673778       -7.27035686059034
H           -0.40043117309433       -4.36039814556629       -7.16274436703657
H           -1.55195912579139        4.11777970357170        6.78105532132768
H            0.12132701945134        4.53858846237507        7.15662400845915
H           -1.05752136837849        6.90084265420520        3.99292234627230
H           -2.73555151980382        6.49346292949973        3.62056688020817
H            5.45232231064217        3.79836810810747       -4.48218936644874
H            4.88096897192669        3.26312520949125       -6.06453270141878
H            2.25193774536975        6.14107109588951       -4.73067266601502
H            2.81887154996293        6.69340773872640       -3.15135034656567
H           -1.96006847666299       -3.93503633145016       -0.98679281090980
H           -0.45862994266369        0.58707092453984        5.09897594981423
H            0.75269471682587       -0.56931114802946       -4.91109100046030
H            0.53218400346990        4.44932629202201        0.78083667075461
H           -3.05024837975437       -1.77241251344594        2.54090599955414
H            2.43620907152505       -2.45695609698193        4.27650868072195
H           -4.06357981218624       -0.23872017141755       -1.33608213529678
H            3.49164486625024        1.68070230914470        3.90752372701809
H            2.79576356931161       -3.62211995017543       -2.73493438677176
H           -3.46147346330055        3.14931281489153        0.02211892913799
H            4.42629620133648        0.33805908257937       -2.90823215644616
H           -0.63577498180108        3.39060244552636       -3.19759324679761
H           -1.11977471948400       -4.66870632557346        1.19880446090777
H           -1.06584433001834       -1.73997493691709        5.40129726957607
H           -3.34505757506019       -1.33392451621463       -3.31030115628887
H            1.91384850739408        3.40096194849448        4.35441127661750
H            0.72998310648069       -4.15315454064372       -3.77896207163307
H           -2.80567887485645        3.57280031048472        2.25929311533598
H            1.70843611843704        1.64287286826896       -5.13780083617986
H            2.21524117650801        4.37259197236648       -0.99557479410862
H           -0.41765288822496       -5.39120515314056        3.27158393457954
H           -1.75190870927503       -3.85122732102075        5.56127785110570
H           -2.90469182423661       -2.35488883786812       -5.23239020926396
H           -1.11486935652805       -4.80667675411826       -4.81537176977284
H            0.53493041139903        5.09138883038150        4.76233898949106
H           -2.35913925028899        4.15709263117446        4.37441415991879
H            2.52437980402594        3.71150239272420       -5.38104327104083
H            3.76313871227550        4.44896930934654       -2.67693909676885
C            0.92236083247601       -1.46333238418053       -0.33676217856743
C            1.23083601656428       -1.44341277237571        1.15906950388497
O           -0.34523562401563       -0.88715376719993       -0.59770028695827
C           -0.40456970648836        0.43226506159643       -0.09010373209658
C           -0.10035288815781        0.44687663331265        1.40676723408804
O            1.17343661787050       -0.11627241244545        1.65377869249640
H            0.87547915112370       -2.48283291263709       -0.71625949569791
H            0.50690902568759       -2.06799637594641        1.70218818746340
H            0.32154922384392        1.06553382280009       -0.61965151688121
H           -0.86346213274667       -0.13376046044072        1.94381619622282
H            2.24272322266456       -1.79965516438510        1.34840373938403
H           -1.41398081980766        0.79035866963325       -0.28562867178810
H           -0.07192491292959        1.46610540127353        1.79183018195137
H            1.69496248857710       -0.89744155915270       -0.87557091588816

          :  Hamiltonian                  GFN2-xTB          :
         :: total energy            -211.125121115337 Eh    ::
         :: gradient norm              0.000265592099 Eh/a0 ::
         :: HOMO-LUMO gap              2.424307058166 eV    ::
         :: SCC energy              -214.110167749192 Eh    ::
         :: -> dispersion             -0.192119961329 Eh    ::
         :: -> Gsolv                  -0.091050889342 Eh    ::
         :: repulsion energy           2.974989106186 Eh    ::

    * Orbital Energies and Occupations

         #    Occupation            Energy/Eh            Energy/eV
      -------------------------------------------------------------
         1        2.0000           -0.8510465             -23.1582
       ...           ...                  ...                  ...
       182        2.0000           -0.4102332             -11.1630
       183        2.0000           -0.4083485             -11.1117
       184        2.0000           -0.4070847             -11.0773
       185        2.0000           -0.4061003             -11.0506
       186        2.0000           -0.4034130             -10.9774
       187        2.0000           -0.3895910             -10.6013
       188        2.0000           -0.3895613             -10.6005
       189        2.0000           -0.3876185             -10.5476
       190        2.0000           -0.3873277             -10.5397
       191        2.0000           -0.3867180             -10.5231
       192        2.0000           -0.3866037             -10.5200
       193        2.0000           -0.3862721             -10.5110
       194        2.0000           -0.3854137             -10.4876 (HOMO)
       195                         -0.2963221              -8.0633 (LUMO)
       196                         -0.2947078              -8.0194
       197                         -0.2929556              -7.9717
       198                         -0.2900007              -7.8913
       199                         -0.2824062              -7.6847
       200                         -0.2803895              -7.6298
       201                         -0.2785258              -7.5791
       202                         -0.2763377              -7.5195
       203                         -0.2322615              -6.3202
       204                         -0.2309559              -6.2846
       205                         -0.2292305              -6.2377
       ...                                ...                  ...
       384                          0.6668325              18.1454
      -------------------------------------------------------------
                  HL-Gap            0.0890916 Eh            2.4243 eV

     #   Z          covCN         q      C6AA      α(0)
     1   6 C        3.805    -0.061    21.663     6.626
     2   6 C        3.806    -0.061    21.667     6.627
     3   6 C        3.805    -0.061    21.670     6.627
     4   6 C        3.806    -0.061    21.666     6.626
     5   6 C        3.805    -0.061    21.665     6.626
     6   6 C        3.806    -0.061    21.672     6.627
     7   6 C        3.805    -0.061    21.667     6.627
     8   6 C        3.805    -0.061    21.662     6.626
     9   6 C        3.810    -0.056    21.565     6.610
    10   6 C        3.811    -0.060    21.648     6.623
    11   6 C        3.810    -0.058    21.604     6.616
    12   6 C        3.811    -0.059    21.634     6.621
    13   6 C        3.811    -0.059    21.630     6.620
    14   6 C        3.811    -0.057    21.590     6.614
    15   6 C        3.811    -0.060    21.643     6.622
    16   6 C        3.810    -0.056    21.577     6.612
    17   6 C        2.927    -0.021    28.534     8.760
    18   6 C        2.928    -0.027    28.668     8.781
    19   6 C        2.927    -0.027    28.670     8.781
    20   6 C        2.926    -0.029    28.731     8.790
    21   6 C        3.005    -0.028    28.690     8.786
    22   6 C        2.998    -0.027    28.659     8.782
    23   6 C        3.000    -0.031    28.765     8.798
    24   6 C        2.999    -0.028    28.684     8.785
    25   6 C        2.995    -0.035    28.856     8.812
    26   6 C        3.000    -0.037    28.896     8.818
    27   6 C        2.992    -0.029    28.719     8.791
    28   6 C        2.999    -0.029    28.719     8.791
    29   6 C        2.859     0.081    26.186     8.388
    30   6 C        2.861     0.081    26.196     8.389
    31   6 C        2.863     0.082    26.162     8.384
    32   6 C        2.862     0.080    26.210     8.392
    33   6 C        2.862     0.080    26.205     8.391
    34   6 C        2.863     0.077    26.286     8.404
    35   6 C        2.860     0.080    26.205     8.391
    36   6 C        2.859     0.080    26.205     8.391
    37   6 C        2.980     0.015    27.660     8.627
    38   6 C        2.979     0.016    27.659     8.627
    39   6 C        2.979     0.020    27.551     8.610
    40   6 C        2.979     0.015    27.674     8.629
    41   6 C        2.978     0.015    27.679     8.630
    42   6 C        2.979     0.013    27.729     8.638
    43   6 C        2.979     0.015    27.672     8.629
    44   6 C        2.980     0.014    27.706     8.634
    45   6 C        2.916     0.084    26.125     8.382
    46   6 C        2.914     0.092    25.961     8.355
    47   6 C        2.913     0.088    26.044     8.368
    48   6 C        2.914     0.087    26.074     8.373
    49   6 C        3.824     0.062    19.522     6.287
    50   6 C        3.826     0.059    19.565     6.294
    51   6 C        3.828     0.061    19.542     6.290
    52   6 C        3.827     0.061    19.545     6.291
    53   6 C        3.826     0.060    19.560     6.293
    54   6 C        3.828     0.059    19.575     6.295
    55   6 C        3.826     0.060    19.561     6.293
    56   6 C        3.823     0.062    19.520     6.287
    57  35 Br       1.079    -0.179   190.025    22.226
    58  35 Br       1.070    -0.182   190.092    22.230
    59  35 Br       1.061    -0.185   190.166    22.235
    60  35 Br       1.072    -0.179   190.016    22.226
    61   7 N        1.838    -0.260    27.621     7.788
    62   7 N        1.837    -0.258    27.553     7.779
    63   7 N        1.837    -0.257    27.541     7.777
    64   7 N        1.837    -0.256    27.515     7.773
    65   7 N        1.837    -0.253    27.445     7.764
    66   7 N        1.837    -0.256    27.503     7.772
    67   7 N        1.838    -0.255    27.493     7.770
    68   7 N        1.839    -0.256    27.515     7.774
    69   1 H        0.924     0.041     2.436     2.441
    70   1 H        0.924     0.044     2.394     2.420
    71   1 H        0.924     0.044     2.393     2.419
    72   1 H        0.924     0.040     2.448     2.447
    73   1 H        0.924     0.042     2.429     2.437
    74   1 H        0.924     0.044     2.394     2.420
    75   1 H        0.924     0.040     2.448     2.447
    76   1 H        0.924     0.044     2.393     2.419
    77   1 H        0.924     0.040     2.449     2.448
    78   1 H        0.924     0.044     2.394     2.420
    79   1 H        0.924     0.044     2.392     2.419
    80   1 H        0.924     0.042     2.421     2.433
    81   1 H        0.924     0.044     2.393     2.419
    82   1 H        0.924     0.040     2.444     2.445
    83   1 H        0.924     0.044     2.393     2.419
    84   1 H        0.924     0.041     2.437     2.441
    85   1 H        0.924     0.035     2.514     2.479
    86   1 H        0.924     0.046     2.368     2.407
    87   1 H        0.924     0.039     2.467     2.456
    88   1 H        0.924     0.050     2.324     2.384
    89   1 H        0.924     0.048     2.346     2.395
    90   1 H        0.924     0.037     2.485     2.465
    91   1 H        0.924     0.050     2.318     2.381
    92   1 H        0.924     0.038     2.478     2.462
    93   1 H        0.924     0.050     2.319     2.381
    94   1 H        0.924     0.037     2.486     2.466
    95   1 H        0.924     0.047     2.354     2.400
    96   1 H        0.924     0.037     2.485     2.465
    97   1 H        0.924     0.050     2.320     2.382
    98   1 H        0.924     0.039     2.466     2.456
    99   1 H        0.924     0.048     2.347     2.396
   100   1 H        0.924     0.036     2.504     2.474
   101   1 H        0.926     0.071     2.077     2.254
   102   1 H        0.926     0.074     2.042     2.235
   103   1 H        0.926     0.076     2.023     2.224
   104   1 H        0.926     0.072     2.067     2.248
   105   1 H        0.926     0.074     2.046     2.237
   106   1 H        0.926     0.083     1.950     2.184
   107   1 H        0.926     0.073     2.058     2.243
   108   1 H        0.926     0.067     2.124     2.279
   109   1 H        0.926     0.068     2.104     2.268
   110   1 H        0.926     0.079     1.986     2.204
   111   1 H        0.926     0.084     1.937     2.176
   112   1 H        0.926     0.080     1.978     2.199
   113   1 H        0.923     0.009     2.904     2.665
   114   1 H        0.923     0.011     2.867     2.648
   115   1 H        0.923     0.015     2.808     2.620
   116   1 H        0.923     0.008     2.919     2.672
   117   1 H        0.923     0.009     2.913     2.669
   118   1 H        0.923     0.020     2.732     2.585
   119   1 H        0.923     0.013     2.838     2.634
   120   1 H        0.923     0.011     2.878     2.653
   121   1 H        0.923     0.016     2.794     2.614
   122   1 H        0.922     0.015     2.810     2.622
   123   1 H        0.923     0.017     2.786     2.610
   124   1 H        0.922     0.014     2.826     2.629
   125   1 H        0.922     0.014     2.825     2.629
   126   1 H        0.923     0.020     2.739     2.588
   127   1 H        0.923     0.016     2.792     2.613
   128   1 H        0.923     0.015     2.811     2.622
   129   6 C        3.713     0.081    19.357     6.286
   130   6 C        3.714     0.081    19.355     6.286
   131   8 O        1.700    -0.355    19.988     6.036
   132   6 C        3.713     0.085    19.295     6.276
   133   6 C        3.714     0.082    19.330     6.282
   134   8 O        1.700    -0.352    19.924     6.026
   135   1 H        0.925     0.060     2.194     2.316
   136   1 H        0.923     0.032     2.561     2.502
   137   1 H        0.923     0.030     2.589     2.516
   138   1 H        0.923     0.033     2.546     2.495
   139   1 H        0.925     0.070     2.090     2.261
   140   1 H        0.925     0.053     2.286     2.364
   141   1 H        0.925     0.056     2.244     2.342
   142   1 H        0.923     0.035     2.520     2.482

Wiberg/Mayer (AO) data.
largest (>0.10) Wiberg bond orders for each atom

     #   Z sym  total        # sym  WBO       # sym  WBO       # sym  WBO
 ---------------------------------------------------------------------------
     1   6 C    3.995 --     2 C    1.009     9 C    1.007    69 H    0.977
                            70 H    0.974
     2   6 C    3.996 --     1 C    1.009    10 C    1.007    72 H    0.977
                            71 H    0.975
     3   6 C    3.995 --     4 C    1.009    11 C    1.007    73 H    0.977
                            74 H    0.975
     4   6 C    3.996 --     3 C    1.009    12 C    1.007    75 H    0.977
                            76 H    0.975
     5   6 C    3.996 --     6 C    1.009    13 C    1.007    77 H    0.977
                            78 H    0.975
     6   6 C    3.995 --     5 C    1.009    14 C    1.007    80 H    0.977
                            79 H    0.974
     7   6 C    3.996 --     8 C    1.009    15 C    1.007    82 H    0.977
                            81 H    0.975
     8   6 C    3.995 --     7 C    1.009    16 C    1.007    84 H    0.977
                            83 H    0.974
     9   6 C    3.988 --     1 C    1.007    86 H    0.976    85 H    0.975
                            49 C    0.964
    10   6 C    3.990 --     2 C    1.007    87 H    0.976    88 H    0.975
                            50 C    0.974
    11   6 C    3.989 --     3 C    1.007    89 H    0.975    90 H    0.975
                            51 C    0.967
    12   6 C    3.989 --     4 C    1.007    92 H    0.975    91 H    0.975
                            52 C    0.971
    13   6 C    3.989 --     5 C    1.007    94 H    0.976    93 H    0.975
                            53 C    0.970
    14   6 C    3.988 --     6 C    1.007    96 H    0.975    95 H    0.975
                            54 C    0.964
    15   6 C    3.990 --     7 C    1.007    98 H    0.975    97 H    0.975
                            55 C    0.973
    16   6 C    3.988 --     8 C    1.007    99 H    0.975   100 H    0.975
                            56 C    0.964
    17   6 C    3.981 --    37 C    1.399    39 C    1.377   101 H    0.963
    18   6 C    3.980 --    38 C    1.400    40 C    1.375   102 H    0.962
    19   6 C    3.980 --    43 C    1.400    41 C    1.375   103 H    0.962
    20   6 C    3.981 --    44 C    1.399    42 C    1.378   104 H    0.963
    21   6 C    3.982 --    45 C    1.434    37 C    1.351   105 H    0.963
    22   6 C    3.981 --    46 C    1.434    38 C    1.350   106 H    0.962
    23   6 C    3.978 --    45 C    1.414    39 C    1.372   107 H    0.963
    24   6 C    3.978 --    46 C    1.411    40 C    1.373   108 H    0.964
    25   6 C    3.977 --    47 C    1.408    41 C    1.374   109 H    0.964
    26   6 C    3.976 --    48 C    1.412    42 C    1.371   110 H    0.961
    27   6 C    3.980 --    47 C    1.432    43 C    1.351   111 H    0.961
    28   6 C    3.981 --    48 C    1.433    44 C    1.353   112 H    0.962
    29   6 C    3.967 --    61 N    1.844    37 C    1.078   113 H    0.938
    30   6 C    3.967 --    62 N    1.842    38 C    1.080   114 H    0.937
    31   6 C    3.965 --    63 N    1.843    39 C    1.078   115 H    0.937
    32   6 C    3.967 --    64 N    1.841    40 C    1.081   116 H    0.937
    33   6 C    3.967 --    65 N    1.843    41 C    1.080   117 H    0.937
    34   6 C    3.965 --    66 N    1.844    42 C    1.077   118 H    0.937
    35   6 C    3.966 --    67 N    1.844    43 C    1.078   119 H    0.937
    36   6 C    3.966 --    68 N    1.845    44 C    1.077   120 H    0.938
    37   6 C    3.989 --    17 C    1.399    21 C    1.351    29 C    1.078
    38   6 C    3.989 --    18 C    1.400    22 C    1.350    30 C    1.080
    39   6 C    3.988 --    17 C    1.377    23 C    1.372    31 C    1.078
    40   6 C    3.988 --    18 C    1.375    24 C    1.373    32 C    1.081
    41   6 C    3.988 --    19 C    1.375    25 C    1.374    33 C    1.080
    42   6 C    3.988 --    20 C    1.378    26 C    1.371    34 C    1.077
    43   6 C    3.989 --    19 C    1.400    27 C    1.351    35 C    1.078
    44   6 C    3.989 --    20 C    1.399    28 C    1.353    36 C    1.077
    45   6 C    3.936 --    21 C    1.434    23 C    1.414    57 Br   0.962
    46   6 C    3.936 --    22 C    1.434    24 C    1.411    58 Br   0.967
    47   6 C    3.935 --    27 C    1.432    25 C    1.408    59 Br   0.969
    48   6 C    3.937 --    28 C    1.433    26 C    1.412    60 Br   0.966
    49   6 C    3.976 --    61 N    1.021     9 C    0.964   121 H    0.954
                            50 C    0.943
    50   6 C    3.978 --    62 N    1.023    10 C    0.974   122 H    0.953
                            49 C    0.943
    51   6 C    3.975 --    63 N    1.022    11 C    0.967   123 H    0.953
                            52 C    0.938
    52   6 C    3.976 --    65 N    1.024    12 C    0.971   124 H    0.953
                            51 C    0.938
    53   6 C    3.977 --    64 N    1.023    13 C    0.970   125 H    0.953
                            54 C    0.944
    54   6 C    3.976 --    66 N    1.022    14 C    0.964   126 H    0.953
                            53 C    0.944
    55   6 C    3.977 --    67 N    1.023    15 C    0.973   127 H    0.953
                            56 C    0.939
    56   6 C    3.975 --    68 N    1.023    16 C    0.964   128 H    0.954
                            55 C    0.939
    57  35 Br   1.086 --    45 C    0.962
    58  35 Br   1.090 --    46 C    0.967
    59  35 Br   1.095 --    47 C    0.969
    60  35 Br   1.090 --    48 C    0.966
    61   7 N    3.073 --    29 C    1.844    49 C    1.021
    62   7 N    3.073 --    30 C    1.842    50 C    1.023
    63   7 N    3.072 --    31 C    1.843    51 C    1.022
    64   7 N    3.074 --    32 C    1.841    53 C    1.023
    65   7 N    3.076 --    33 C    1.843    52 C    1.024
    66   7 N    3.072 --    34 C    1.844    54 C    1.022
    67   7 N    3.074 --    35 C    1.844    55 C    1.023
    68   7 N    3.075 --    36 C    1.845    56 C    1.023
    69   1 H    0.998 --     1 C    0.977
    70   1 H    0.996 --     1 C    0.974
    71   1 H    0.996 --     2 C    0.975
    72   1 H    0.998 --     2 C    0.977
    73   1 H    0.998 --     3 C    0.977
    74   1 H    0.996 --     3 C    0.975
    75   1 H    0.998 --     4 C    0.977
    76   1 H    0.996 --     4 C    0.975
    77   1 H    0.998 --     5 C    0.977
    78   1 H    0.996 --     5 C    0.975
    79   1 H    0.996 --     6 C    0.974
    80   1 H    0.998 --     6 C    0.977
    81   1 H    0.996 --     7 C    0.975
    82   1 H    0.998 --     7 C    0.977
    83   1 H    0.996 --     8 C    0.974
    84   1 H    0.998 --     8 C    0.977
    85   1 H    0.997 --     9 C    0.975
    86   1 H    0.998 --     9 C    0.976
    87   1 H    0.997 --    10 C    0.976
    88   1 H    0.998 --    10 C    0.975
    89   1 H    0.998 --    11 C    0.975
    90   1 H    0.997 --    11 C    0.975
    91   1 H    0.997 --    12 C    0.975
    92   1 H    0.997 --    12 C    0.975
    93   1 H    0.997 --    13 C    0.975
    94   1 H    0.997 --    13 C    0.976
    95   1 H    0.998 --    14 C    0.975
    96   1 H    0.997 --    14 C    0.975
    97   1 H    0.997 --    15 C    0.975
    98   1 H    0.997 --    15 C    0.975
    99   1 H    0.998 --    16 C    0.975
   100   1 H    0.997 --    16 C    0.975
   101   1 H    0.994 --    17 C    0.963
   102   1 H    0.994 --    18 C    0.962
   103   1 H    0.993 --    19 C    0.962
   104   1 H    0.994 --    20 C    0.963
   105   1 H    0.994 --    21 C    0.963
   106   1 H    0.993 --    22 C    0.962
   107   1 H    0.994 --    23 C    0.963
   108   1 H    0.995 --    24 C    0.964
   109   1 H    0.995 --    25 C    0.964
   110   1 H    0.993 --    26 C    0.961
   111   1 H    0.993 --    27 C    0.961
   112   1 H    0.993 --    28 C    0.962
   113   1 H    0.999 --    29 C    0.938
   114   1 H    0.999 --    30 C    0.937
   115   1 H    0.999 --    31 C    0.937
   116   1 H    0.999 --    32 C    0.937
   117   1 H    0.999 --    33 C    0.937
   118   1 H    0.999 --    34 C    0.937
   119   1 H    0.999 --    35 C    0.937
   120   1 H    0.999 --    36 C    0.938
   121   1 H    1.000 --    49 C    0.954
   122   1 H    1.000 --    50 C    0.953
   123   1 H    1.000 --    51 C    0.953
   124   1 H    1.000 --    52 C    0.953
   125   1 H    1.000 --    53 C    0.953
   126   1 H    1.000 --    54 C    0.953
   127   1 H    1.000 --    55 C    0.953
   128   1 H    1.000 --    56 C    0.954
   129   6 C    3.949 --   130 C    0.994   131 O    0.975   135 H    0.969
                           142 H    0.966
   130   6 C    3.949 --   129 C    0.994   134 O    0.976   139 H    0.968
                           136 H    0.966
   131   8 O    2.052 --   132 C    0.979   129 C    0.975
   132   6 C    3.952 --   133 C    0.993   131 O    0.979   137 H    0.966
                           140 H    0.966
   133   6 C    3.952 --   132 C    0.993   134 O    0.980   141 H    0.969
                           138 H    0.965
   134   8 O    2.053 --   133 C    0.980   130 C    0.976
   135   1 H    0.996 --   129 C    0.969
   136   1 H    0.999 --   130 C    0.966
   137   1 H    0.999 --   132 C    0.966
   138   1 H    0.999 --   133 C    0.965
   139   1 H    0.995 --   130 C    0.968
   140   1 H    0.997 --   132 C    0.966
   141   1 H    0.997 --   133 C    0.969
   142   1 H    0.999 --   129 C    0.966
 ---------------------------------------------------------------------------

molecular dipole:
                 x           y           z       tot (Debye)
 q only:       -0.879       0.185      -0.209
   full:       -1.201       0.227      -0.296       3.197

           -------------------------------------------------
          | TOTAL ENERGY             -211.125121115337 Eh   |
          | GRADIENT NORM               0.000265592099 Eh/α |
          | HOMO-LUMO GAP               2.424307058166 eV   |
           -------------------------------------------------

 * finished run on 2023/10/31 at 15:35:10.428
