   * xtb version 6.4.1 (23d549d) compiled by 'conda@3c73975816cd' on 2022-01-07
          program call               : xtb QAQOLRCTTDVBAK-UHFFFAOYSA-N_ETKDG_MMFF.xyz --opt --gfn 2 --alpb chcl3 --cycles 10000
          number of atoms            :                    16
          number of electrons        :                    56
          charge                     :                     0

   ID    Z sym.   atoms
    1    6 C      1-8
    2   35 Br     9
    3    8 O      10, 11
    4    1 H      12-16

        Solvent                        chcl3
        Solvent mass                       1.1938E+02 g/mol
          :  Hamiltonian                  GFN2-xTB          :
 * total energy  :   -31.8556822 Eh     change       -0.4739249E-09 Eh
 * total energy  :   -31.8575315 Eh     change       -0.1849348E-02 Eh
 * total energy  :   -31.8578197 Eh     change       -0.2881673E-03 Eh
 * total energy  :   -31.8578388 Eh     change       -0.1909242E-04 Eh
 * total energy  :   -31.8578362 Eh     change        0.2583016E-05 Eh
 * total energy  :   -31.8578410 Eh     change       -0.4789369E-05 Eh
   *** GEOMETRY OPTIMIZATION CONVERGED AFTER 6 ITERATIONS ***

 final structure:
================
16
 xtb: 6.4.1 (23d549d)
C         0.22415555635844   -0.94823603299292    0.17911162809115
C        -1.42331718922556    0.79702975427070   -0.10202001058126
C         0.92628454173614    1.31079436030467   -0.29773241985697
C        -2.18353361801531   -1.51491582914965    0.38707537903965
C         2.65163779599825   -0.44765024295265   -0.01776996261987
C        -1.10832050508682   -0.53868257177389    0.15078164179048
C         1.24180987947943   -0.02714125752741   -0.04459437473741
C        -0.39922019372397    1.70300198088337   -0.32194902703117
Br       -0.83060905910027    3.53491522003571   -0.66652604408609
O        -2.00943618693084   -2.68892791533149    0.61332119733875
O         3.59438209338452    0.28560508473472   -0.19991254920475
H         0.44529963388474   -1.98680303696778    0.37707024143259
H        -2.45340960857944    1.11907895050658   -0.12556142463316
H         1.72836322730797    2.01334478884473   -0.46958649133035
H        -3.20177732590174   -1.08967353560358    0.34655285457471
H         2.79769295841447   -1.52173971728111    0.19173736181369

          :  Hamiltonian                  GFN2-xTB          :
         :: total energy             -31.857840980399 Eh    ::
         :: gradient norm              0.000821086690 Eh/a0 ::
         :: HOMO-LUMO gap              2.570633561375 eV    ::
         :: SCC energy               -32.262420814236 Eh    ::
         :: -> dispersion             -0.015485197711 Eh    ::
         :: -> Gsolv                  -0.021923870546 Eh    ::
         :: repulsion energy           0.404541528629 Eh    ::

    * Orbital Energies and Occupations

         #    Occupation            Energy/Eh            Energy/eV
      -------------------------------------------------------------
         1        2.0000           -0.8552152             -23.2716
       ...           ...                  ...                  ...
        16        2.0000           -0.5487099             -14.9312
        17        2.0000           -0.5369673             -14.6116
        18        2.0000           -0.5262201             -14.3192
        19        2.0000           -0.5252217             -14.2920
        20        2.0000           -0.5200546             -14.1514
        21        2.0000           -0.4857767             -13.2187
        22        2.0000           -0.4747054             -12.9174
        23        2.0000           -0.4709261             -12.8146
        24        2.0000           -0.4568524             -12.4316
        25        2.0000           -0.4323758             -11.7655
        26        2.0000           -0.4319212             -11.7532
        27        2.0000           -0.4228161             -11.5054
        28        2.0000           -0.4217911             -11.4775 (HOMO)
        29                         -0.3273220              -8.9069 (LUMO)
        30                         -0.3143306              -8.5534
        31                         -0.2551950              -6.9442
        32                         -0.2264050              -6.1608
        33                         -0.2151715              -5.8551
        34                         -0.1252642              -3.4086
        35                          0.0159016               0.4327
        36                          0.0211642               0.5759
        37                          0.0231053               0.6287
        38                          0.0590214               1.6061
        39                          0.0607027               1.6518
       ...                                ...                  ...
        54                          0.6456608              17.5693
      -------------------------------------------------------------
                  HL-Gap            0.0944690 Eh            2.5706 eV

     #   Z          covCN         q      C6AA      α(0)
     1   6 C        2.923    -0.007    28.207     8.710
     2   6 C        2.990    -0.016    28.406     8.743
     3   6 C        2.991    -0.007    28.175     8.707
     4   6 C        2.767     0.217    23.426     7.927
     5   6 C        2.767     0.217    23.414     7.925
     6   6 C        2.971     0.005    27.899     8.664
     7   6 C        2.970     0.005    27.909     8.666
     8   6 C        2.911     0.101    25.764     8.323
     9  35 Br       1.060    -0.162   189.528    22.197
    10   8 O        0.856    -0.365    20.995     6.143
    11   8 O        0.856    -0.364    20.982     6.141
    12   1 H        0.926     0.092     1.863     2.134
    13   1 H        0.926     0.093     1.854     2.129
    14   1 H        0.926     0.097     1.814     2.106
    15   1 H        0.923     0.048     2.349     2.397
    16   1 H        0.923     0.048     2.344     2.394

Wiberg/Mayer (AO) data.
largest (>0.10) Wiberg bond orders for each atom

     #   Z sym  total        # sym  WBO       # sym  WBO       # sym  WBO
 ---------------------------------------------------------------------------
     1   6 C    3.981 --     7 C    1.392     6 C    1.382    12 H    0.959
     2   6 C    3.983 --     8 C    1.414     6 C    1.369    13 H    0.960
     3   6 C    3.982 --     8 C    1.421     7 C    1.360    14 H    0.959
     4   6 C    3.907 --    10 O    1.861     6 C    1.052    15 H    0.932
     5   6 C    3.907 --    11 O    1.863     7 C    1.051    16 H    0.931
     6   6 C    3.990 --     1 C    1.382     2 C    1.369     4 C    1.052
     7   6 C    3.990 --     1 C    1.392     3 C    1.360     5 C    1.051
     8   6 C    3.943 --     3 C    1.421     2 C    1.414     9 Br   0.985
     9  35 Br   1.117 --     8 C    0.985
    10   8 O    2.063 --     4 C    1.861
    11   8 O    2.063 --     5 C    1.863
    12   1 H    0.991 --     1 C    0.959
    13   1 H    0.991 --     2 C    0.960
    14   1 H    0.990 --     3 C    0.959
    15   1 H    0.997 --     4 C    0.932
    16   1 H    0.996 --     5 C    0.931
 ---------------------------------------------------------------------------

molecular dipole:
                 x           y           z       tot (Debye)
 q only:       -0.757       0.047       0.020
   full:       -0.767      -0.244       0.078       2.054

           -------------------------------------------------
          | TOTAL ENERGY              -31.857840980399 Eh   |
          | GRADIENT NORM               0.000821086690 Eh/α |
          | HOMO-LUMO GAP               2.570633561375 eV   |
           -------------------------------------------------

 * finished run on 2022/04/01 at 14:49:28.176
