   * xtb version 6.4.1 (23d549d) compiled by 'conda@3c73975816cd' on 2022-01-07
          program call               : xtb RUQARIUHZQLYSV-BVJTVBEQSA-N_ETKDG_MMFF.xyz --opt --gfn 2 --alpb chcl3 --cycles 10000
          number of atoms            :                    64
          number of electrons        :                   176
          charge                     :                     0

   ID    Z sym.   atoms
    1    6 C      1-28
    2   35 Br     29, 30
    3    7 N      31-34
    4    1 H      35-64

        Solvent                        chcl3
        Solvent mass                       1.1938E+02 g/mol
          :  Hamiltonian                  GFN2-xTB          :
 * total energy  :   -95.1257649 Eh     change       -0.1989775E-08 Eh
 * total energy  :   -95.1394104 Eh     change       -0.1364545E-01 Eh
 * total energy  :   -95.1432978 Eh     change       -0.3887444E-02 Eh
 * total energy  :   -95.1443868 Eh     change       -0.1088965E-02 Eh
 * total energy  :   -95.1449946 Eh     change       -0.6078555E-03 Eh
 * total energy  :   -95.1453466 Eh     change       -0.3519775E-03 Eh
 * total energy  :   -95.1455864 Eh     change       -0.2397554E-03 Eh
 * total energy  :   -95.1457487 Eh     change       -0.1623478E-03 Eh
 * total energy  :   -95.1458871 Eh     change       -0.1383993E-03 Eh
 * total energy  :   -95.1460216 Eh     change       -0.1345001E-03 Eh
 * total energy  :   -95.1504658 Eh     change       -0.2364158E-04 Eh
 * total energy  :   -95.1504788 Eh     change       -0.1304877E-04 Eh
 * total energy  :   -95.1504913 Eh     change       -0.1250181E-04 Eh
 * total energy  :   -95.1505121 Eh     change       -0.2081925E-04 Eh
 * total energy  :   -95.1505241 Eh     change       -0.1191798E-04 Eh
 * total energy  :   -95.1505394 Eh     change       -0.1532736E-04 Eh
 * total energy  :   -95.1505462 Eh     change       -0.6821061E-05 Eh
 * total energy  :   -95.1505513 Eh     change       -0.5061852E-05 Eh
 * total energy  :   -95.1505550 Eh     change       -0.3745369E-05 Eh
   *** GEOMETRY OPTIMIZATION CONVERGED AFTER 46 ITERATIONS ***

 final structure:
================
64
 xtb: 6.4.1 (23d549d)
C         6.68670908871880    0.97005026174579    0.24636918844148
C         6.73221816508028   -0.45619657211268    0.78902074999021
C        -5.91077727601504    2.47977723973914    1.57218376488386
C        -6.51096885939011    1.08880161580542    1.75477610920452
C         5.63747128723604    1.10044910894145   -0.85404524764509
C         5.35857622979408   -0.89500814349589    1.28763342943580
C        -4.93135141349291    2.49269729200938    0.39257457092646
C        -5.42280503998744    0.08920109209590    2.16266668257392
C        -0.32106454999619    1.11994527949851   -1.39323353171360
C         0.21811740185183   -1.52400546893264    0.97907522749207
C         1.13100177867036    0.75653796776947   -3.27859852453432
C         0.56300489763966   -3.76913691844564    0.18475609964004
C        -1.26939462112844    0.62961405331223   -3.54900107668212
C        -1.64956491421160   -3.03559510252499    0.82751379895680
C         2.10257022636743    1.11106620176097   -1.01865825867959
C         2.46077095412717   -2.18686818620474    0.17699179762151
C        -2.76971134255968    0.86193944662798   -1.59630366334021
C        -2.02856846674665   -0.67512693279884    1.49577051609989
C         0.96254086905139    1.02324379942025   -1.91835823761197
C         1.07207623068508   -2.50560711645989    0.48174269065546
C        -1.44029750552856    0.89821193861908   -2.19174397689238
C        -1.14280243819865   -1.76869225507427    1.12430582378589
C         0.01253728664434    0.58524560580170   -4.06914773252732
C        -0.78392567650691   -4.01537604587714    0.38545117476600
C         4.26877974371308    0.68116094420299   -0.32641882760592
C         4.33131626463909   -0.78915642835474    0.15820029523983
C        -4.27028547835126    1.12120160257601    0.17854370894693
C        -4.06053692744351    0.44499460318737    1.55661693837040
Br        0.23824271547677    0.23610109053663   -5.93905335055577
Br       -1.47173442533319   -5.76060810172685   -0.00198749450316
N         3.26657582372635    0.74758338750069   -1.34885257639932
N         3.02098298334350   -1.14278832234042    0.61201121732302
N        -2.98607392059322    1.28807707173230   -0.42812019900498
N        -3.28164111008832   -0.73946224201030    1.34820725790542
H         6.44419817740204    1.65898903656846    1.05881214975476
H         7.66602901513575    1.24713969809208   -0.14763541859912
H         7.06146509736564   -1.13454482977669   -0.00143291004674
H         7.45186791114791   -0.51897648184354    1.60729418681985
H        -6.70102609386220    3.21057249518632    1.39411298210828
H        -5.39757497012525    2.76569289182851    2.49150209826272
H        -7.28874254806837    1.11256280158225    2.51913136343205
H        -6.97860758865011    0.77793863841951    0.81906688515917
H         5.89525884659627    0.46755857103775   -1.70481042993441
H         5.58251251025141    2.13232159183224   -1.20653004569430
H         5.39392073162477   -1.92889911029189    1.63872164980832
H         5.03460342951192   -0.26669888765874    2.11908240187283
H        -5.44879457498063    2.76683416429608   -0.52885028531525
H        -4.14313171653277    3.22841122596741    0.56224086384676
H        -5.68815675475069   -0.91583099580612    1.83163150104582
H        -5.32068686020941    0.06574952458659    3.24896674140624
H        -0.47801762435345    1.33096146328000   -0.34806250407428
H         0.63516792986202   -0.55689630186956    1.20784158395750
H         2.12858895387914    0.68232277811233   -3.68018672522137
H         1.21035766155176   -4.54501319960763   -0.19538160220724
H        -2.12419051756654    0.45985480940065   -4.18620993187662
H        -2.70554346266636   -3.21946157056443    0.94189739226206
H         1.87022126678719    1.45529707553904   -0.00123723871142
H         2.97288714044995   -2.88779641518776   -0.49891965180511
H        -3.55856210267836    0.40354441163237   -2.21044897025646
H        -1.53016780727283    0.23539249562058    1.85553767835821
H         3.98927382713792    1.29822858127001    0.54509166525968
H         4.64899562929791   -1.42559489329966   -0.68644625986496
H        -4.91758546155754    0.46944288619756   -0.43103624558765
H        -3.51654502592440    1.16862677893047    2.18536773127612

          :  Hamiltonian                  GFN2-xTB          :
         :: total energy             -95.150555009855 Eh    ::
         :: gradient norm              0.000573681200 Eh/a0 ::
         :: HOMO-LUMO gap              2.412515152510 eV    ::
         :: SCC energy               -96.543344392577 Eh    ::
         :: -> dispersion             -0.080062556526 Eh    ::
         :: -> Gsolv                  -0.043642376712 Eh    ::
         :: repulsion energy           1.391441915902 Eh    ::

    * Orbital Energies and Occupations

         #    Occupation            Energy/Eh            Energy/eV
      -------------------------------------------------------------
         1        2.0000           -0.8464967             -23.0343
       ...           ...                  ...                  ...
        76        2.0000           -0.4272011             -11.6247
        77        2.0000           -0.4248180             -11.5599
        78        2.0000           -0.4207628             -11.4495
        79        2.0000           -0.4201844             -11.4338
        80        2.0000           -0.4198208             -11.4239
        81        2.0000           -0.4154005             -11.3036
        82        2.0000           -0.4089416             -11.1279
        83        2.0000           -0.4084683             -11.1150
        84        2.0000           -0.4077780             -11.0962
        85        2.0000           -0.3911365             -10.6434
        86        2.0000           -0.3903768             -10.6227
        87        2.0000           -0.3873408             -10.5401
        88        2.0000           -0.3871323             -10.5344 (HOMO)
        89                         -0.2984740              -8.1219 (LUMO)
        90                         -0.2915517              -7.9335
        91                         -0.2839512              -7.7267
        92                         -0.2774703              -7.5504
        93                         -0.2344179              -6.3788
        94                         -0.2303584              -6.2684
        95                         -0.2156957              -5.8694
        96                         -0.2155794              -5.8662
        97                         -0.1920576              -5.2262
        98                         -0.1860539              -5.0628
        99                         -0.1074860              -2.9248
       ...                                ...                  ...
       176                          0.6577537              17.8984
      -------------------------------------------------------------
                  HL-Gap            0.0886583 Eh            2.4125 eV

     #   Z          covCN         q      C6AA      α(0)
     1   6 C        3.805    -0.061    21.676     6.628
     2   6 C        3.805    -0.061    21.667     6.627
     3   6 C        3.803    -0.061    21.676     6.628
     4   6 C        3.803    -0.061    21.676     6.628
     5   6 C        3.808    -0.062    21.694     6.630
     6   6 C        3.808    -0.058    21.604     6.616
     7   6 C        3.807    -0.059    21.631     6.621
     8   6 C        3.807    -0.065    21.735     6.637
     9   6 C        2.931    -0.028    28.709     8.787
    10   6 C        2.930    -0.028    28.703     8.786
    11   6 C        2.993    -0.027    28.669     8.783
    12   6 C        2.995    -0.032    28.797     8.803
    13   6 C        2.995    -0.032    28.792     8.802
    14   6 C        2.993    -0.027    28.672     8.784
    15   6 C        2.873     0.082    26.175     8.387
    16   6 C        2.862     0.082    26.170     8.385
    17   6 C        2.860     0.081    26.182     8.387
    18   6 C        2.869     0.081    26.181     8.388
    19   6 C        2.978     0.016    27.647     8.625
    20   6 C        2.978     0.013    27.707     8.634
    21   6 C        2.978     0.014    27.706     8.634
    22   6 C        2.978     0.016    27.640     8.624
    23   6 C        2.914     0.090    25.995     8.361
    24   6 C        2.914     0.090    25.996     8.361
    25   6 C        3.839     0.060    19.552     6.290
    26   6 C        3.828     0.063    19.498     6.283
    27   6 C        3.823     0.064    19.491     6.282
    28   6 C        3.832     0.060    19.553     6.291
    29  35 Br       1.064    -0.184   190.159    22.234
    30  35 Br       1.064    -0.184   190.164    22.235
    31   7 N        1.835    -0.258    27.566     7.780
    32   7 N        1.836    -0.258    27.567     7.781
    33   7 N        1.836    -0.257    27.536     7.776
    34   7 N        1.835    -0.258    27.549     7.778
    35   1 H        0.924     0.039     2.457     2.451
    36   1 H        0.924     0.043     2.404     2.425
    37   1 H        0.924     0.040     2.453     2.449
    38   1 H        0.924     0.044     2.400     2.422
    39   1 H        0.924     0.043     2.410     2.428
    40   1 H        0.924     0.041     2.435     2.440
    41   1 H        0.924     0.043     2.416     2.430
    42   1 H        0.924     0.039     2.463     2.454
    43   1 H        0.924     0.049     2.336     2.390
    44   1 H        0.924     0.042     2.427     2.436
    45   1 H        0.924     0.037     2.489     2.467
    46   1 H        0.924     0.048     2.349     2.397
    47   1 H        0.924     0.038     2.480     2.463
    48   1 H        0.924     0.047     2.355     2.400
    49   1 H        0.924     0.052     2.297     2.370
    50   1 H        0.924     0.040     2.448     2.447
    51   1 H        0.926     0.073     2.058     2.243
    52   1 H        0.926     0.072     2.062     2.245
    53   1 H        0.926     0.084     1.938     2.177
    54   1 H        0.926     0.069     2.100     2.266
    55   1 H        0.926     0.069     2.097     2.264
    56   1 H        0.926     0.084     1.940     2.178
    57   1 H        0.923     0.015     2.813     2.623
    58   1 H        0.923     0.011     2.873     2.651
    59   1 H        0.923     0.011     2.869     2.649
    60   1 H        0.923     0.015     2.806     2.619
    61   1 H        0.923     0.019     2.752     2.594
    62   1 H        0.923     0.012     2.857     2.643
    63   1 H        0.923     0.013     2.839     2.635
    64   1 H        0.923     0.020     2.729     2.584

Wiberg/Mayer (AO) data.
largest (>0.10) Wiberg bond orders for each atom

     #   Z sym  total        # sym  WBO       # sym  WBO       # sym  WBO
 ---------------------------------------------------------------------------
     1   6 C    3.996 --     2 C    1.009     5 C    1.007    35 H    0.977
                            36 H    0.976
     2   6 C    3.996 --     1 C    1.009     6 C    1.007    37 H    0.977
                            38 H    0.975
     3   6 C    3.995 --     4 C    1.010     7 C    1.003    40 H    0.979
                            39 H    0.977
     4   6 C    3.996 --     3 C    1.010     8 C    1.004    42 H    0.979
                            41 H    0.977
     5   6 C    3.992 --     1 C    1.007    25 C    0.985    43 H    0.975
                            44 H    0.974
     6   6 C    3.989 --     2 C    1.007    46 H    0.975    45 H    0.975
                            26 C    0.970
     7   6 C    3.989 --     3 C    1.003    47 H    0.978    48 H    0.977
                            27 C    0.967
     8   6 C    3.991 --     4 C    1.004    28 C    0.982    50 H    0.979
                            49 H    0.976
     9   6 C    3.984 --    19 C    1.396    21 C    1.377    51 H    0.960
    10   6 C    3.984 --    22 C    1.396    20 C    1.377    52 H    0.961
    11   6 C    3.981 --    23 C    1.430    19 C    1.355    53 H    0.962
    12   6 C    3.978 --    24 C    1.412    20 C    1.373    54 H    0.964
    13   6 C    3.978 --    23 C    1.412    21 C    1.373    55 H    0.964
    14   6 C    3.981 --    24 C    1.430    22 C    1.355    56 H    0.962
    15   6 C    3.967 --    31 N    1.838    19 C    1.079    57 H    0.936
    16   6 C    3.966 --    32 N    1.843    20 C    1.078    58 H    0.937
    17   6 C    3.966 --    33 N    1.841    21 C    1.078    59 H    0.937
    18   6 C    3.968 --    34 N    1.838    22 C    1.078    60 H    0.936
    19   6 C    3.989 --     9 C    1.396    11 C    1.355    15 C    1.079
    20   6 C    3.988 --    10 C    1.377    12 C    1.373    16 C    1.078
    21   6 C    3.988 --     9 C    1.377    13 C    1.373    17 C    1.078
    22   6 C    3.989 --    10 C    1.396    14 C    1.355    18 C    1.078
    23   6 C    3.935 --    11 C    1.430    13 C    1.412    29 Br   0.969
    24   6 C    3.935 --    14 C    1.430    12 C    1.412    30 Br   0.969
    25   6 C    3.976 --    31 N    1.022     5 C    0.985    61 H    0.951
                            26 C    0.925
    26   6 C    3.977 --    32 N    1.025     6 C    0.970    62 H    0.954
                            25 C    0.925
    27   6 C    3.977 --    33 N    1.026     7 C    0.967    63 H    0.956
                            28 C    0.924
    28   6 C    3.976 --    34 N    1.023     8 C    0.982    64 H    0.953
                            27 C    0.924
    29  35 Br   1.093 --    23 C    0.969
    30  35 Br   1.093 --    24 C    0.969
    31   7 N    3.068 --    15 C    1.838    25 C    1.022
    32   7 N    3.076 --    16 C    1.843    26 C    1.025
    33   7 N    3.078 --    17 C    1.841    27 C    1.026
    34   7 N    3.068 --    18 C    1.838    28 C    1.023
    35   1 H    0.998 --     1 C    0.977
    36   1 H    0.997 --     1 C    0.976
    37   1 H    0.998 --     2 C    0.977
    38   1 H    0.996 --     2 C    0.975
    39   1 H    0.996 --     3 C    0.977
    40   1 H    0.998 --     3 C    0.979
    41   1 H    0.997 --     4 C    0.977
    42   1 H    0.998 --     4 C    0.979
    43   1 H    0.998 --     5 C    0.975
    44   1 H    0.996 --     5 C    0.974
    45   1 H    0.998 --     6 C    0.975
    46   1 H    0.998 --     6 C    0.975
    47   1 H    0.998 --     7 C    0.978
    48   1 H    0.998 --     7 C    0.977
    49   1 H    0.997 --     8 C    0.976
    50   1 H    0.997 --     8 C    0.979
    51   1 H    0.994 --     9 C    0.960
    52   1 H    0.994 --    10 C    0.961
    53   1 H    0.993 --    11 C    0.962
    54   1 H    0.995 --    12 C    0.964
    55   1 H    0.995 --    13 C    0.964
    56   1 H    0.993 --    14 C    0.962
    57   1 H    0.999 --    15 C    0.936
    58   1 H    0.999 --    16 C    0.937
    59   1 H    0.999 --    17 C    0.937
    60   1 H    0.999 --    18 C    0.936
    61   1 H    0.999 --    25 C    0.951
    62   1 H    1.000 --    26 C    0.954
    63   1 H    1.000 --    27 C    0.956
    64   1 H    0.999 --    28 C    0.953
 ---------------------------------------------------------------------------

molecular dipole:
                 x           y           z       tot (Debye)
 q only:        0.263       1.184       1.264
   full:        0.339       1.596       1.698       5.986

           -------------------------------------------------
          | TOTAL ENERGY              -95.150555009855 Eh   |
          | GRADIENT NORM               0.000573681200 Eh/α |
          | HOMO-LUMO GAP               2.412515152510 eV   |
           -------------------------------------------------

 * finished run on 2022/04/01 at 14:28:49.819
