   * xtb version 6.4.1 (23d549d) compiled by 'conda@3c73975816cd' on 2022-01-07
          program call               : xtb HPVISMWRRURKMP-FQUPQTDFSA-N_ETKDG_MMFF.xyz --opt --gfn 2 --alpb chcl3 --cycles 10000
          number of atoms            :                    96
          number of electrons        :                   264
          charge                     :                     0

   ID    Z sym.   atoms
    1    6 C      1-42
    2   35 Br     43-45
    3    7 N      46-51
    4    1 H      52-96

        Solvent                        chcl3
        Solvent mass                       1.1938E+02 g/mol
          :  Hamiltonian                  GFN2-xTB          :
 * total energy  :  -142.7046664 Eh     change       -0.7793517E-09 Eh
 * total energy  :  -142.7212511 Eh     change       -0.1658477E-01 Eh
 * total energy  :  -142.7261433 Eh     change       -0.4892199E-02 Eh
 * total energy  :  -142.7273405 Eh     change       -0.1197181E-02 Eh
 * total energy  :  -142.7280396 Eh     change       -0.6990657E-03 Eh
 * total energy  :  -142.7285370 Eh     change       -0.4973844E-03 Eh
 * total energy  :  -142.7289655 Eh     change       -0.4285657E-03 Eh
 * total energy  :  -142.7292986 Eh     change       -0.3330861E-03 Eh
 * total energy  :  -142.7295872 Eh     change       -0.2886238E-03 Eh
 * total energy  :  -142.7298375 Eh     change       -0.2503055E-03 Eh
 * total energy  :  -142.7310467 Eh     change       -0.1020540E-04 Eh
 * total energy  :  -142.7310566 Eh     change       -0.9835255E-05 Eh
 * total energy  :  -142.7310673 Eh     change       -0.1074533E-04 Eh
 * total energy  :  -142.7310755 Eh     change       -0.8213611E-05 Eh
 * total energy  :  -142.7310826 Eh     change       -0.7069747E-05 Eh
 * total energy  :  -142.7310901 Eh     change       -0.7544608E-05 Eh
 * total energy  :  -142.7310975 Eh     change       -0.7350729E-05 Eh
 * total energy  :  -142.7311028 Eh     change       -0.5296133E-05 Eh
 * total energy  :  -142.7311070 Eh     change       -0.4169853E-05 Eh
   *** GEOMETRY OPTIMIZATION CONVERGED AFTER 39 ITERATIONS ***

 final structure:
================
96
 xtb: 6.4.1 (23d549d)
C        -4.19101867745684   -5.08851766934803    0.96569177180389
C        -3.07212670142925   -5.90037229572001    1.63033627438328
C        -3.14810829353858    6.25268529041115    3.17943416249566
C        -2.03673958625007    7.00767618913645    2.45665082418186
C         6.58561423723381    0.48596223949466    2.78352492439262
C         6.77619541801120    1.66886529947891    1.83943899122336
C        -3.92417769131144   -4.94105658372587   -0.52645316840601
C        -1.73552776377401   -5.70881534304743    0.90696757968248
C        -3.87448221463746    5.31927183293411    2.21716491792323
C        -1.05854205720546    6.03093541070230    1.81329107112107
C         5.95601694762039   -0.68776315137291    2.04194763051770
C         5.44084579714270    2.08393909964165    1.23231473666976
C        -3.34551326285632    0.13253916660919   -0.65592661673405
C         2.38791929915746   -3.29441289797182   -0.62455136660092
C         0.96040961690927    2.26203017230603   -0.93978634403189
C        -4.33889968842830   -0.07717144042344   -2.84000094709205
C         2.31200828779972   -4.93219505362018   -2.38993066194347
C        -4.43705246373763    2.03040315645141   -1.65917830704631
C         4.33740606649850   -3.67929443489175   -1.98638198355910
C        -0.84521796822714    1.85482885826880   -2.48259405806495
C         1.15454079540285    0.50789773865501   -2.58207389919850
C        -3.25702193050056   -2.04953508152940   -1.81440758506835
C         0.29680095975718   -4.56969986793993   -1.01193295628235
C        -3.25696383656964    2.30169317073551    0.50289886581371
C         4.44601376529547   -1.96798532445702   -0.21594220975057
C        -1.09897495155177    3.66130968192007   -0.84744408735060
C         3.04818515847699    0.92113864096699   -1.07359313742097
C        -3.65591651293983   -0.64681514567921   -1.76709651150142
C         1.68227302383768   -4.25446440865426   -1.34459326601419
C        -3.71441027066970    1.47226254045392   -0.60135282707826
C         3.71113607733305   -2.99976330551362   -0.93945605960192
C        -0.30325079132797    2.58538939732098   -1.42356316580570
C         1.70316568373637    1.24343430246490   -1.53083508700600
C        -4.73310085841669    1.24710157716914   -2.75673022331382
C         3.62793487372463   -4.63438346522341   -2.68938168013336
C        -0.11910084379330    0.81158646651890   -3.02023943115938
C        -2.67415587824905   -4.07376673089735   -0.77789316098827
C        -1.62791955285649   -4.28647710589798    0.34343626140005
C        -2.90214466560364    4.32583761147157    1.58495365738455
C        -1.77793679502854    5.10644142832761    0.83521395667968
C         4.60298138370139   -0.28772236859508    1.44300960454229
C         4.78670525703670    0.92114309382734    0.48693871428747
Br       -5.68561389197539    2.02492412071489   -4.22908810979948
Br        4.49457476562150   -5.57026979862194   -4.12354937702591
Br       -0.89761076463090   -0.23743649942772   -4.41427079055125
N        -3.04426750235328   -2.69094136693937   -0.75034496208973
N        -0.28382676881313   -3.97725957907485   -0.06086228406539
N        -3.56321073718546    3.52472649530342    0.60750951497782
N         3.93018871080576   -1.36436586012548    0.76557837731065
N        -0.86449977519268    4.14696484718463    0.29585650742158
N         3.48994536475628    1.32072552230387    0.03713314963845
H        -5.15234957029744   -5.57980102507299    1.12321642427602
H        -4.24997129038623   -4.09189921006326    1.40436542338262
H        -2.97383844379027   -5.59309594343832    2.67221110521557
H        -3.32569257655815   -6.96204668138343    1.62196899130326
H        -2.71827182440292    5.66742785711243    3.99549150230751
H        -3.86106872452231    6.95817970259156    3.60979393453424
H        -1.50288866587263    7.64946733175499    3.15963563970514
H        -2.47342931844460    7.64475799985402    1.68407356349717
H         7.54733918072604    0.17980927432948    3.19969779457759
H         5.93714759254946    0.78124700082736    3.61065202547073
H         7.20867185871148    2.51275697439957    2.37941618306885
H         7.46980787186069    1.39117145626644    1.04153251206441
H        -4.77656754361784   -4.47113435053100   -1.02173058389860
H        -3.77676076139701   -5.92516010199016   -0.97387113049368
H        -0.90491086094242   -5.87908686309889    1.59426828118391
H        -1.63586484630421   -6.42172697207289    0.08603204059021
H        -4.65147724213237    4.76026087723920    2.74288017955201
H        -4.35285776341492    5.89180324418027    1.42080086904476
H        -0.57528156709994    5.41853451132675    2.57598827897125
H        -0.27926869209877    6.57185177996819    1.27316553991561
H         5.79872686031978   -1.52881513538096    2.72079088936763
H         6.62580959031598   -1.01839546581871    1.24471618589365
H         4.75572406004133    2.41375656305649    2.01420679911264
H         5.58012006555502    2.91256213690111    0.53491879770697
H        -2.79427972610443   -0.32230870860639    0.15185485489080
H         1.90208608251197   -2.76918841855521    0.18061973171884
H         1.37716903986782    2.81673472981946   -0.11597543934358
H        -4.56247952523289   -0.66221714934071   -3.71900539747188
H         1.77929888743806   -5.67966520880753   -2.95856011945827
H        -4.73144167555573    3.06623085606578   -1.60469640152506
H         5.36392427089145   -3.46499371532527   -2.24419344262063
H        -1.82605040252701    2.09375540969217   -2.86398016986747
H         1.71383222825919   -0.29472204506080   -3.03905404870436
H        -3.16878131243626   -2.49730744003188   -2.81522383974306
H        -0.16917444761150   -5.34608313246696   -1.63518704531191
H        -2.58561180419874    1.80441366359189    1.21743865550569
H         5.45275440790441   -1.76009163514475   -0.60698169198319
H        -1.93292450407557    4.01389795100297   -1.47204577520289
H         3.64257287025470    0.29326874818332   -1.75666641240797
H        -2.24455488373220   -4.34876502652446   -1.75808559186816
H        -1.85773680339209   -3.57156834248520    1.14178506900301
H        -2.41533371824963    3.70966353446241    2.36114986647465
H        -2.27141631605370    5.68911320147868    0.03939956654787
H         3.92439564764885    0.02259541005747    2.24616142995767
H         5.42737550223627    0.59358878495779   -0.35281327410654

          :  Hamiltonian                  GFN2-xTB          :
         :: total energy            -142.731106970103 Eh    ::
         :: gradient norm              0.000321156439 Eh/a0 ::
         :: HOMO-LUMO gap              2.079937180904 eV    ::
         :: SCC energy              -144.820504718025 Eh    ::
         :: -> dispersion             -0.126189008102 Eh    ::
         :: -> Gsolv                  -0.064408141952 Eh    ::
         :: repulsion energy           2.086422732592 Eh    ::

    * Orbital Energies and Occupations

         #    Occupation            Energy/Eh            Energy/eV
      -------------------------------------------------------------
         1        2.0000           -0.8518938             -23.1812
       ...           ...                  ...                  ...
       120        2.0000           -0.4195370             -11.4162
       121        2.0000           -0.4174179             -11.3585
       122        2.0000           -0.4142271             -11.2717
       123        2.0000           -0.4113897             -11.1945
       124        2.0000           -0.4088956             -11.1266
       125        2.0000           -0.4080873             -11.1046
       126        2.0000           -0.4060335             -11.0487
       127        2.0000           -0.3891948             -10.5905
       128        2.0000           -0.3872933             -10.5388
       129        2.0000           -0.3870750             -10.5328
       130        2.0000           -0.3842751             -10.4567
       131        2.0000           -0.3770669             -10.2605
       132        2.0000           -0.3738122             -10.1719 (HOMO)
       133                         -0.2973759              -8.0920 (LUMO)
       134                         -0.2935827              -7.9888
       135                         -0.2913061              -7.9268
       136                         -0.2830542              -7.7023
       137                         -0.2797548              -7.6125
       138                         -0.2774465              -7.5497
       139                         -0.2329093              -6.3378
       140                         -0.2312240              -6.2919
       141                         -0.2305192              -6.2727
       142                         -0.2198847              -5.9834
       143                         -0.2187875              -5.9535
       ...                                ...                  ...
       264                          0.6614601              17.9992
      -------------------------------------------------------------
                  HL-Gap            0.0764363 Eh            2.0799 eV

     #   Z          covCN         q      C6AA      α(0)
     1   6 C        3.803    -0.062    21.692     6.631
     2   6 C        3.804    -0.062    21.683     6.629
     3   6 C        3.805    -0.061    21.675     6.628
     4   6 C        3.805    -0.061    21.675     6.628
     5   6 C        3.806    -0.062    21.685     6.629
     6   6 C        3.805    -0.060    21.646     6.623
     7   6 C        3.807    -0.054    21.542     6.607
     8   6 C        3.805    -0.056    21.577     6.613
     9   6 C        3.809    -0.061    21.669     6.626
    10   6 C        3.809    -0.063    21.711     6.633
    11   6 C        3.806    -0.058    21.606     6.617
    12   6 C        3.810    -0.064    21.720     6.634
    13   6 C        2.929    -0.027    28.678     8.782
    14   6 C        2.926    -0.021    28.543     8.761
    15   6 C        2.925    -0.020    28.505     8.756
    16   6 C        2.992    -0.030    28.727     8.792
    17   6 C        2.991    -0.032    28.783     8.801
    18   6 C        2.992    -0.028    28.678     8.785
    19   6 C        2.993    -0.033    28.810     8.805
    20   6 C        3.000    -0.034    28.826     8.807
    21   6 C        2.998    -0.032    28.780     8.800
    22   6 C        2.856     0.081    26.191     8.388
    23   6 C        2.848     0.081    26.198     8.389
    24   6 C        2.868     0.082    26.164     8.385
    25   6 C        2.850     0.084    26.127     8.378
    26   6 C        2.870     0.082    26.174     8.386
    27   6 C        2.861     0.083    26.136     8.380
    28   6 C        2.981     0.018    27.600     8.618
    29   6 C        2.980     0.017    27.627     8.622
    30   6 C        2.978     0.015    27.667     8.628
    31   6 C        2.979     0.015    27.671     8.629
    32   6 C        2.978     0.016    27.648     8.625
    33   6 C        2.980     0.018    27.592     8.616
    34   6 C        2.913     0.090    25.991     8.360
    35   6 C        2.912     0.088    26.039     8.368
    36   6 C        2.914     0.085    26.115     8.380
    37   6 C        3.815     0.060    19.565     6.295
    38   6 C        3.814     0.046    19.788     6.331
    39   6 C        3.830     0.065    19.478     6.280
    40   6 C        3.834     0.063    19.505     6.283
    41   6 C        3.815     0.052    19.695     6.316
    42   6 C        3.822     0.063    19.501     6.284
    43  35 Br       1.060    -0.188   190.256    22.240
    44  35 Br       1.058    -0.191   190.353    22.246
    45  35 Br       1.070    -0.186   190.216    22.238
    46   7 N        1.840    -0.249    27.347     7.750
    47   7 N        1.832    -0.251    27.382     7.754
    48   7 N        1.837    -0.261    27.628     7.789
    49   7 N        1.832    -0.256    27.499     7.771
    50   7 N        1.835    -0.256    27.519     7.774
    51   7 N        1.838    -0.244    27.216     7.731
    52   1 H        0.924     0.041     2.429     2.437
    53   1 H        0.924     0.047     2.361     2.403
    54   1 H        0.924     0.042     2.424     2.435
    55   1 H        0.924     0.041     2.433     2.439
    56   1 H        0.924     0.040     2.452     2.449
    57   1 H        0.924     0.043     2.413     2.429
    58   1 H        0.924     0.043     2.409     2.427
    59   1 H        0.924     0.039     2.463     2.454
    60   1 H        0.924     0.042     2.422     2.434
    61   1 H        0.924     0.044     2.398     2.421
    62   1 H        0.924     0.043     2.405     2.425
    63   1 H        0.924     0.035     2.517     2.481
    64   1 H        0.924     0.036     2.508     2.476
    65   1 H        0.924     0.043     2.403     2.424
    66   1 H        0.924     0.040     2.450     2.448
    67   1 H        0.924     0.033     2.548     2.496
    68   1 H        0.924     0.041     2.438     2.442
    69   1 H        0.924     0.050     2.316     2.380
    70   1 H        0.924     0.052     2.293     2.368
    71   1 H        0.924     0.044     2.403     2.424
    72   1 H        0.924     0.040     2.455     2.450
    73   1 H        0.924     0.033     2.550     2.497
    74   1 H        0.924     0.056     2.243     2.342
    75   1 H        0.924     0.040     2.442     2.444
    76   1 H        0.926     0.072     2.065     2.247
    77   1 H        0.926     0.094     1.845     2.124
    78   1 H        0.926     0.094     1.836     2.119
    79   1 H        0.926     0.071     2.078     2.255
    80   1 H        0.926     0.067     2.116     2.275
    81   1 H        0.926     0.082     1.956     2.187
    82   1 H        0.926     0.066     2.130     2.282
    83   1 H        0.926     0.058     2.224     2.332
    84   1 H        0.926     0.060     2.204     2.322
    85   1 H        0.923     0.011     2.872     2.650
    86   1 H        0.923     0.009     2.907     2.666
    87   1 H        0.923     0.009     2.900     2.663
    88   1 H        0.923     0.009     2.915     2.670
    89   1 H        0.923     0.009     2.903     2.664
    90   1 H        0.923    -0.003     3.105     2.756
    91   1 H        0.922    -0.000     3.066     2.738
    92   1 H        0.924     0.060     2.200     2.320
    93   1 H        0.923     0.013     2.845     2.638
    94   1 H        0.923     0.019     2.749     2.593
    95   1 H        0.924     0.051     2.305     2.374
    96   1 H        0.922     0.000     3.058     2.735

Wiberg/Mayer (AO) data.
largest (>0.10) Wiberg bond orders for each atom

     #   Z sym  total        # sym  WBO       # sym  WBO       # sym  WBO
 ---------------------------------------------------------------------------
     1   6 C    3.996 --     7 C    1.011     2 C    1.005    53 H    0.978
                            52 H    0.977
     2   6 C    3.995 --     1 C    1.005     8 C    1.004    54 H    0.980
                            55 H    0.979
     3   6 C    3.996 --     4 C    1.009     9 C    1.008    56 H    0.977
                            57 H    0.976
     4   6 C    3.996 --     3 C    1.009    10 C    1.008    59 H    0.977
                            58 H    0.976
     5   6 C    3.996 --     6 C    1.009    11 C    1.008    61 H    0.976
                            60 H    0.975
     6   6 C    3.996 --     5 C    1.009    12 C    1.008    63 H    0.977
                            62 H    0.975
     7   6 C    3.990 --     1 C    1.011    64 H    0.976    65 H    0.975
                            37 C    0.963
     8   6 C    3.993 --     2 C    1.004    66 H    0.977    67 H    0.977
                            38 C    0.969
     9   6 C    3.991 --     3 C    1.008    39 C    0.981    69 H    0.975
                            68 H    0.974
    10   6 C    3.991 --     4 C    1.008    40 C    0.985    70 H    0.975
                            71 H    0.973
    11   6 C    3.994 --     5 C    1.008    72 H    0.975    73 H    0.974
                            41 C    0.973
    12   6 C    3.991 --     6 C    1.008    42 C    0.982    75 H    0.974
                            74 H    0.974
    13   6 C    3.980 --    30 C    1.394    28 C    1.382    76 H    0.962
    14   6 C    3.980 --    31 C    1.387    29 C    1.387    77 H    0.958
    15   6 C    3.981 --    32 C    1.390    33 C    1.386    78 H    0.959
    16   6 C    3.978 --    34 C    1.409    28 C    1.375    79 H    0.964
    17   6 C    3.981 --    35 C    1.419    29 C    1.366    80 H    0.964
    18   6 C    3.981 --    34 C    1.431    30 C    1.353    81 H    0.962
    19   6 C    3.983 --    35 C    1.420    31 C    1.365    82 H    0.964
    20   6 C    3.983 --    36 C    1.423    32 C    1.363    83 H    0.964
    21   6 C    3.979 --    36 C    1.421    33 C    1.367    84 H    0.965
    22   6 C    3.968 --    46 N    1.854    28 C    1.069    85 H    0.937
    23   6 C    3.970 --    47 N    1.848    29 C    1.075    86 H    0.937
    24   6 C    3.967 --    48 N    1.818    30 C    1.082    87 H    0.938
    25   6 C    3.969 --    49 N    1.846    31 C    1.077    88 H    0.936
    26   6 C    3.971 --    50 N    1.831    32 C    1.074    89 H    0.937
    27   6 C    3.971 --    51 N    1.846    33 C    1.075    90 H    0.936
    28   6 C    3.989 --    13 C    1.382    16 C    1.375    22 C    1.069
    29   6 C    3.989 --    14 C    1.387    17 C    1.366    23 C    1.075
    30   6 C    3.989 --    13 C    1.394    18 C    1.353    24 C    1.082
    31   6 C    3.989 --    14 C    1.387    19 C    1.365    25 C    1.077
    32   6 C    3.989 --    15 C    1.390    20 C    1.363    26 C    1.074
    33   6 C    3.988 --    15 C    1.386    21 C    1.367    27 C    1.075
    34   6 C    3.934 --    18 C    1.431    16 C    1.409    43 Br   0.968
    35   6 C    3.932 --    19 C    1.420    17 C    1.419    44 Br   0.968
    36   6 C    3.934 --    20 C    1.423    21 C    1.421    45 Br   0.964
    37   6 C    3.978 --    46 N    1.024     7 C    0.963    91 H    0.952
                            38 C    0.943
    38   6 C    3.975 --    47 N    1.019     8 C    0.969    92 H    0.960
                            37 C    0.943
    39   6 C    3.976 --    48 N    1.035     9 C    0.981    93 H    0.953
                            40 C    0.900
    40   6 C    3.972 --    50 N    1.030    10 C    0.985    94 H    0.952
                            39 C    0.900
    41   6 C    3.972 --    49 N    1.018    11 C    0.973    95 H    0.963
                            42 C    0.921
    42   6 C    3.978 --    51 N    1.026    12 C    0.982    96 H    0.950
                            41 C    0.921
    43  35 Br   1.094 --    34 C    0.968
    44  35 Br   1.093 --    35 C    0.968
    45  35 Br   1.089 --    36 C    0.964
    46   7 N    3.079 --    22 C    1.854    37 C    1.024
    47   7 N    3.079 --    23 C    1.848    38 C    1.019
    48   7 N    3.069 --    24 C    1.818    39 C    1.035
    49   7 N    3.077 --    25 C    1.846    41 C    1.018
    50   7 N    3.069 --    26 C    1.831    40 C    1.030
    51   7 N    3.081 --    27 C    1.846    42 C    1.026
    52   1 H    0.998 --     1 C    0.977
    53   1 H    0.998 --     1 C    0.978
    54   1 H    0.998 --     2 C    0.980
    55   1 H    0.998 --     2 C    0.979
    56   1 H    0.998 --     3 C    0.977
    57   1 H    0.997 --     3 C    0.976
    58   1 H    0.997 --     4 C    0.976
    59   1 H    0.998 --     4 C    0.977
    60   1 H    0.998 --     5 C    0.975
    61   1 H    0.998 --     5 C    0.976
    62   1 H    0.997 --     6 C    0.975
    63   1 H    0.999 --     6 C    0.977
    64   1 H    0.998 --     7 C    0.976
    65   1 H    0.997 --     7 C    0.975
    66   1 H    0.997 --     8 C    0.977
    67   1 H    0.999 --     8 C    0.977
    68   1 H    0.998 --     9 C    0.974
    69   1 H    0.997 --     9 C    0.975
    70   1 H    0.997 --    10 C    0.975
    71   1 H    0.997 --    10 C    0.973
    72   1 H    0.998 --    11 C    0.975
    73   1 H    0.999 --    11 C    0.974
    74   1 H    0.997 --    12 C    0.974
    75   1 H    0.998 --    12 C    0.974
    76   1 H    0.994 --    13 C    0.962
    77   1 H    0.990 --    14 C    0.958
    78   1 H    0.990 --    15 C    0.959
    79   1 H    0.995 --    16 C    0.964
    80   1 H    0.995 --    17 C    0.964
    81   1 H    0.993 --    18 C    0.962
    82   1 H    0.995 --    19 C    0.964
    83   1 H    0.996 --    20 C    0.964
    84   1 H    0.996 --    21 C    0.965
    85   1 H    0.999 --    22 C    0.937
    86   1 H    0.999 --    23 C    0.937
    87   1 H    0.999 --    24 C    0.938
    88   1 H    0.999 --    25 C    0.936
    89   1 H    0.999 --    26 C    0.937
    90   1 H    1.000 --    27 C    0.936
    91   1 H    1.000 --    37 C    0.952
    92   1 H    0.996 --    38 C    0.960
    93   1 H    1.000 --    39 C    0.953
    94   1 H    0.999 --    40 C    0.952
    95   1 H    0.997 --    41 C    0.963
    96   1 H    1.000 --    42 C    0.950
 ---------------------------------------------------------------------------

molecular dipole:
                 x           y           z       tot (Debye)
 q only:        0.529       0.535       2.586
   full:        1.092       0.004       2.309       6.491

           -------------------------------------------------
          | TOTAL ENERGY             -142.731106970103 Eh   |
          | GRADIENT NORM               0.000321156439 Eh/α |
          | HOMO-LUMO GAP               2.079937180904 eV   |
           -------------------------------------------------

 * finished run on 2022/04/01 at 14:31:49.778
