   * xtb version 6.4.1 (23d549d) compiled by 'conda@3c73975816cd' on 2022-01-07
          program call               : xtb SSJXIUAHEKJCMH-PHDIDXHHSA-N_ETKDG_MMFF.xyz --opt --gfn 2 --alpb chcl3 --cycles 10000
          number of atoms            :                    22
          number of electrons        :                    48
          charge                     :                     0

   ID    Z sym.   atoms
    1    6 C      1-6
    2    7 N      7, 8
    3    1 H      9-22

        Solvent                        chcl3
        Solvent mass                       1.1938E+02 g/mol
          :  Hamiltonian                  GFN2-xTB          :
 * total energy  :   -25.8340803 Eh     change       -0.1016076E-10 Eh
 * total energy  :   -25.8367496 Eh     change       -0.2669269E-02 Eh
 * total energy  :   -25.8371903 Eh     change       -0.4407147E-03 Eh
 * total energy  :   -25.8373241 Eh     change       -0.1338331E-03 Eh
 * total energy  :   -25.8373874 Eh     change       -0.6325061E-04 Eh
 * total energy  :   -25.8374306 Eh     change       -0.4323567E-04 Eh
 * total energy  :   -25.8374476 Eh     change       -0.1703972E-04 Eh
 * total energy  :   -25.8374636 Eh     change       -0.1599888E-04 Eh
 * total energy  :   -25.8374679 Eh     change       -0.4299675E-05 Eh
   *** GEOMETRY OPTIMIZATION CONVERGED AFTER 9 ITERATIONS ***

 final structure:
================
22
 xtb: 6.4.1 (23d549d)
C         1.88128329214041    0.44173479670590   -0.31364251992277
C         1.60799311465800   -1.05722933516279   -0.36571738656354
C         0.64569367365332    1.21986562973339   -0.75156985818399
C         0.40353883082528   -1.40559132676010    0.50143673901161
C        -0.56411268523446    0.87987756721582    0.11968669060695
C        -0.84092873390416   -0.63205508543064    0.06396685286892
N        -1.72827408547308    1.60998264527749   -0.38167011628637
N        -1.94394718771455   -0.96161811242740    0.96644195985714
H         2.14549255636463    0.72700919547229    0.70730735735436
H         2.72293757317788    0.69229790667012   -0.96238336472008
H         2.48320933735103   -1.61018573127738   -0.01872913814343
H         1.40881874865626   -1.35393623008714   -1.39811939560474
H         0.39946416558954    0.98159835583786   -1.78829643738733
H         0.84012978571060    2.29362835585080   -0.69237597615843
H         0.60955771594262   -1.16141238293207    1.54551090344154
H         0.19869799004018   -2.47746805776507    0.44278081623186
H        -0.33627016535495    1.13531421981788    1.17000028627834
H        -1.07449849310041   -0.88658680536452   -0.98533458476209
H        -2.49337843921681    1.52844804046701    0.28026059269397
H        -1.50285857072156    2.59766338781351   -0.45218237130330
H        -2.05029614158546   -1.97035231520410    1.01551780697172
H        -2.81225128180425   -0.59098571845084    0.59383014371964

          :  Hamiltonian                  GFN2-xTB          :
         :: total energy             -25.837467928082 Eh    ::
         :: gradient norm              0.000488183708 Eh/a0 ::
         :: HOMO-LUMO gap             10.459723834615 eV    ::
         :: SCC energy               -26.174363791960 Eh    ::
         :: -> dispersion             -0.015898731708 Eh    ::
         :: -> Gsolv                  -0.011075624426 Eh    ::
         :: repulsion energy           0.336805689149 Eh    ::

    * Orbital Energies and Occupations

         #    Occupation            Energy/Eh            Energy/eV
      -------------------------------------------------------------
         1        2.0000           -0.6425937             -17.4859
       ...           ...                  ...                  ...
        12        2.0000           -0.5051170             -13.7449
        13        2.0000           -0.5044232             -13.7261
        14        2.0000           -0.4854047             -13.2085
        15        2.0000           -0.4745907             -12.9143
        16        2.0000           -0.4666749             -12.6989
        17        2.0000           -0.4589771             -12.4894
        18        2.0000           -0.4493603             -12.2277
        19        2.0000           -0.4423437             -12.0368
        20        2.0000           -0.4250707             -11.5668
        21        2.0000           -0.4199411             -11.4272
        22        2.0000           -0.4153185             -11.3014
        23        2.0000           -0.3727010             -10.1417
        24        2.0000           -0.3654292              -9.9438 (HOMO)
        25                          0.0189586               0.5159 (LUMO)
        26                          0.0413507               1.1252
        27                          0.0765729               2.0837
        28                          0.0848109               2.3078
        29                          0.0993083               2.7023
        30                          0.1068521               2.9076
        31                          0.1187801               3.2322
        32                          0.1210382               3.2936
        33                          0.1497709               4.0755
        34                          0.1764815               4.8023
        35                          0.1825304               4.9669
       ...                                ...                  ...
        46                          0.3047985               8.2940
      -------------------------------------------------------------
                  HL-Gap            0.3843878 Eh           10.4597 eV

     #   Z          covCN         q      C6AA      α(0)
     1   6 C        3.805    -0.061    21.673     6.627
     2   6 C        3.805    -0.061    21.672     6.627
     3   6 C        3.809    -0.067    21.775     6.642
     4   6 C        3.809    -0.067    21.775     6.642
     5   6 C        3.787     0.052    19.721     6.325
     6   6 C        3.786     0.052    19.721     6.325
     7   7 N        2.633    -0.373    29.628     8.084
     8   7 N        2.633    -0.373    29.628     8.084
     9   1 H        0.924     0.036     2.503     2.474
    10   1 H        0.924     0.037     2.491     2.468
    11   1 H        0.924     0.037     2.491     2.468
    12   1 H        0.924     0.036     2.503     2.474
    13   1 H        0.924     0.044     2.401     2.423
    14   1 H        0.924     0.032     2.551     2.498
    15   1 H        0.924     0.044     2.401     2.423
    16   1 H        0.924     0.032     2.551     2.498
    17   1 H        0.922     0.009     2.911     2.668
    18   1 H        0.922     0.009     2.911     2.668
    19   1 H        0.860     0.147     1.423     1.869
    20   1 H        0.860     0.145     1.439     1.879
    21   1 H        0.860     0.145     1.439     1.879
    22   1 H        0.860     0.147     1.423     1.869

Wiberg/Mayer (AO) data.
largest (>0.10) Wiberg bond orders for each atom

     #   Z sym  total        # sym  WBO       # sym  WBO       # sym  WBO
 ---------------------------------------------------------------------------
     1   6 C    3.998 --     2 C    1.009     3 C    1.008     9 H    0.977
                            10 H    0.977
     2   6 C    3.998 --     1 C    1.009     4 C    1.008    12 H    0.977
                            11 H    0.977
     3   6 C    3.997 --     1 C    1.008     5 C    0.995    13 H    0.976
                            14 H    0.975
     4   6 C    3.997 --     2 C    1.008     6 C    0.995    15 H    0.976
                            16 H    0.975
     5   6 C    3.983 --     7 N    1.008     3 C    0.995     6 C    0.977
                            17 H    0.961
     6   6 C    3.983 --     8 N    1.008     4 C    0.995     5 C    0.977
                            18 H    0.961
     7   7 N    2.989 --     5 C    1.008    20 H    0.963    19 H    0.962
     8   7 N    2.989 --     6 C    1.008    21 H    0.963    22 H    0.962
     9   1 H    0.999 --     1 C    0.977
    10   1 H    0.998 --     1 C    0.977
    11   1 H    0.998 --     2 C    0.977
    12   1 H    0.999 --     2 C    0.977
    13   1 H    0.998 --     3 C    0.976
    14   1 H    0.999 --     3 C    0.975
    15   1 H    0.998 --     4 C    0.976
    16   1 H    0.999 --     4 C    0.975
    17   1 H    1.000 --     5 C    0.961
    18   1 H    1.000 --     6 C    0.961
    19   1 H    0.978 --     7 N    0.962
    20   1 H    0.979 --     7 N    0.963
    21   1 H    0.979 --     8 N    0.963
    22   1 H    0.978 --     8 N    0.962
 ---------------------------------------------------------------------------

molecular dipole:
                 x           y           z       tot (Debye)
 q only:        0.199      -0.035      -0.035
   full:        0.084      -0.015      -0.015       0.220

           -------------------------------------------------
          | TOTAL ENERGY              -25.837467928082 Eh   |
          | GRADIENT NORM               0.000488183708 Eh/α |
          | HOMO-LUMO GAP              10.459723834615 eV   |
           -------------------------------------------------

 * finished run on 2022/04/01 at 14:49:56.825
