   * xtb version 6.4.1 (23d549d) compiled by 'conda@3c73975816cd' on 2022-01-07
          program call               : xtb RUQARIUHZQLYSV-WZHDYRIBSA-N_ETKDG_MMFF.xyz --opt --gfn 2 --alpb chcl3 --cycles 10000
          number of atoms            :                    64
          number of electrons        :                   176
          charge                     :                     0

   ID    Z sym.   atoms
    1    6 C      1-28
    2   35 Br     29, 30
    3    7 N      31-34
    4    1 H      35-64

        Solvent                        chcl3
        Solvent mass                       1.1938E+02 g/mol
          :  Hamiltonian                  GFN2-xTB          :
 * total energy  :   -95.1312507 Eh     change       -0.2226287E-08 Eh
 * total energy  :   -95.1427517 Eh     change       -0.1150101E-01 Eh
 * total energy  :   -95.1462642 Eh     change       -0.3512494E-02 Eh
 * total energy  :   -95.1472301 Eh     change       -0.9658628E-03 Eh
 * total energy  :   -95.1478036 Eh     change       -0.5734612E-03 Eh
 * total energy  :   -95.1481923 Eh     change       -0.3887646E-03 Eh
 * total energy  :   -95.1485152 Eh     change       -0.3228487E-03 Eh
 * total energy  :   -95.1487926 Eh     change       -0.2774423E-03 Eh
 * total energy  :   -95.1490181 Eh     change       -0.2255238E-03 Eh
 * total energy  :   -95.1492333 Eh     change       -0.2151286E-03 Eh
 * total energy  :   -95.1546004 Eh     change       -0.5208594E-05 Eh
 * total energy  :   -95.1546055 Eh     change       -0.5169105E-05 Eh
 * total energy  :   -95.1546107 Eh     change       -0.5161061E-05 Eh
 * total energy  :   -95.1546159 Eh     change       -0.5193795E-05 Eh
 * total energy  :   -95.1546211 Eh     change       -0.5236925E-05 Eh
 * total energy  :   -95.1546264 Eh     change       -0.5256842E-05 Eh
 * total energy  :   -95.1546316 Eh     change       -0.5223621E-05 Eh
 * total energy  :   -95.1546367 Eh     change       -0.5110399E-05 Eh
 * total energy  :   -95.1546416 Eh     change       -0.4883247E-05 Eh
   *** GEOMETRY OPTIMIZATION CONVERGED AFTER 87 ITERATIONS ***

 final structure:
================
64
 xtb: 6.4.1 (23d549d)
C        -6.01653583738752   -2.48983341379013   -2.16669424478665
C        -6.58335243856998   -1.55436614740165   -1.10471167603083
C         6.61259940294431    1.58350550680280    0.73538360345207
C         6.14184158887305    2.56044918685731    1.80730877239746
C        -4.67968963515889   -3.05712244479232   -1.70629412070259
C        -5.60486284896209   -0.41834723790752   -0.82599592756306
C         5.63535100248886    0.41830505528893    0.62769164500198
C         4.74545343962235    3.07353001697416    1.47752127080451
C         0.97697564912152   -1.68788962249628   -0.32380661979217
C        -0.97841002484657    1.60327779201296    0.49857925855514
C        -0.13556500351882   -3.76336149926818    0.17735052281403
C        -2.29075524225546    3.47056682387912   -0.27240337416733
C         2.17111423044677   -3.43600487682684    0.82395645051272
C         0.03430861397725    3.78061813598872    0.30568457972071
C        -1.37689156642456   -1.96425489097477   -0.99381922774577
C        -3.33821743910951    1.24182075511453   -0.19578586938689
C         3.30876819398357   -1.28147889446600    0.40381312188502
C         1.40459374541794    1.88086086465702    1.09818183693466
C        -0.16174510030046   -2.48205405788284   -0.37910018911965
C        -2.18770590957751    2.11252721308200    0.02695065432263
C         2.14104162541981   -2.14978174045312    0.28778906966223
C         0.13419206473002    2.42585195887640    0.63157458363802
C         1.03014082582890   -4.21688548623847    0.75952229142898
C        -1.17748502887985    4.27864556133632   -0.12619361079113
C        -3.67361582261712   -1.94899353750201   -1.39658417470984
C        -4.25691327902610   -0.96133183610150   -0.34518385534316
C         4.23796310024706    0.91863698839511    0.25379195656297
C         3.73783149502013    1.93343622009934    1.32201479042876
Br        1.07490141937374   -5.98014934747329    1.51227491818176
Br       -1.32728992308044    6.14383583141027   -0.54304694626969
N        -2.48980396822145   -2.54227921902393   -0.85139980845664
N        -3.22732605287047   -0.00843330765146   -0.06704327175431
N         3.20997853359976   -0.06083438619098    0.09873378807100
N         2.48782380776329    2.49837154100341    0.90317748497733
H        -6.71421322817689   -3.30696017210406   -2.35773172351921
H        -5.87879036701903   -1.94029412817419   -3.10132929471048
H        -7.53626346916789   -1.13950172465453   -1.43998370545518
H        -6.76422633076344   -2.11379211215284   -0.18443224184985
H         7.60694151244472    1.20557851264460    0.98215773060988
H         6.67609564291094    2.09699674044767   -0.22643551887375
H         6.12773542681357    2.05726069430033    2.77737056497005
H         6.83261938976367    3.40245361600685    1.87674664506287
H        -4.81546111371714   -3.65296780689739   -0.80248794764666
H        -4.25559436910228   -3.70563098392102   -2.47539899387303
H        -5.45309225291305    0.15922778970848   -1.74222774855348
H        -6.01602692746066    0.24637150954431   -0.06184755919522
H         5.97418990667745   -0.29005023243192   -0.13300571043258
H         5.59135334584670   -0.10087256459098    1.58884512222520
H         4.39111259751451    3.74336755940606    2.26326196940598
H         4.76348467229723    3.63499987676806    0.54215024758780
H         0.97989532193879   -0.69188810280633   -0.73847430914208
H        -0.92381173951578    0.55264694448909    0.73777272572412
H        -1.02617382636652   -4.36900640859451    0.13707712549443
H        -3.22432353288670    3.88492159897134   -0.62245745795440
H         3.06695457200603   -3.81391950031161    1.29341206883175
H         0.90558234952428    4.40747413993634    0.40461864723188
H        -1.25955148746342   -1.03379625995612   -1.56507496295225
H        -4.25849214267614    1.75539543717796   -0.49633725966150
H         4.21868425232793   -1.75920069709340    0.78399555690692
H         1.34908562614278    0.90919200168197    1.60547300384606
H        -3.45193378771523   -1.36032808012327   -2.30500247737310
H        -4.39173418073328   -1.53081229877190    0.58410584847669
H         4.27732962904984    1.45553943182154   -0.70343019025435
H         3.62990689236456    1.37676271435027    2.26939916234464

          :  Hamiltonian                  GFN2-xTB          :
         :: total energy             -95.154641589008 Eh    ::
         :: gradient norm              0.000158215768 Eh/a0 ::
         :: HOMO-LUMO gap              2.219683059761 eV    ::
         :: SCC energy               -96.547571800328 Eh    ::
         :: -> dispersion             -0.079421484737 Eh    ::
         :: -> Gsolv                  -0.042748033911 Eh    ::
         :: repulsion energy           1.392808412747 Eh    ::

    * Orbital Energies and Occupations

         #    Occupation            Energy/Eh            Energy/eV
      -------------------------------------------------------------
         1        2.0000           -0.8444886             -22.9797
       ...           ...                  ...                  ...
        76        2.0000           -0.4312383             -11.7346
        77        2.0000           -0.4305699             -11.7164
        78        2.0000           -0.4204584             -11.4413
        79        2.0000           -0.4183686             -11.3844
        80        2.0000           -0.4181160             -11.3775
        81        2.0000           -0.4157626             -11.3135
        82        2.0000           -0.4071438             -11.0789
        83        2.0000           -0.4057700             -11.0416
        84        2.0000           -0.4049184             -11.0184
        85        2.0000           -0.3836922             -10.4408
        86        2.0000           -0.3830449             -10.4232
        87        2.0000           -0.3789914             -10.3129
        88        2.0000           -0.3773068             -10.2670 (HOMO)
        89                         -0.2957350              -8.0474 (LUMO)
        90                         -0.2865127              -7.7964
        91                         -0.2820040              -7.6737
        92                         -0.2727002              -7.4205
        93                         -0.2307390              -6.2787
        94                         -0.2250558              -6.1241
        95                         -0.2137184              -5.8156
        96                         -0.2137014              -5.8151
        97                         -0.1898103              -5.1650
        98                         -0.1822401              -4.9590
        99                         -0.1027893              -2.7970
       ...                                ...                  ...
       176                          0.6691204              18.2077
      -------------------------------------------------------------
                  HL-Gap            0.0815719 Eh            2.2197 eV

     #   Z          covCN         q      C6AA      α(0)
     1   6 C        3.805    -0.060    21.655     6.625
     2   6 C        3.806    -0.061    21.663     6.626
     3   6 C        3.806    -0.061    21.663     6.626
     4   6 C        3.805    -0.060    21.656     6.625
     5   6 C        3.811    -0.065    21.741     6.637
     6   6 C        3.805    -0.063    21.711     6.633
     7   6 C        3.805    -0.063    21.711     6.633
     8   6 C        3.811    -0.066    21.754     6.639
     9   6 C        2.929    -0.028    28.705     8.786
    10   6 C        2.927    -0.027    28.688     8.784
    11   6 C        2.992    -0.027    28.664     8.782
    12   6 C        2.995    -0.034    28.827     8.807
    13   6 C        2.994    -0.034    28.827     8.807
    14   6 C        2.993    -0.027    28.665     8.783
    15   6 C        2.864     0.084    26.116     8.377
    16   6 C        2.843     0.077    26.273     8.400
    17   6 C        2.843     0.077    26.270     8.400
    18   6 C        2.858     0.085    26.096     8.373
    19   6 C        2.979     0.019    27.585     8.615
    20   6 C        2.980     0.013    27.720     8.636
    21   6 C        2.982     0.013    27.729     8.638
    22   6 C        2.980     0.019    27.581     8.615
    23   6 C        2.914     0.090    25.992     8.360
    24   6 C        2.913     0.090    25.989     8.360
    25   6 C        3.827     0.062    19.523     6.287
    26   6 C        3.806     0.054    19.666     6.313
    27   6 C        3.805     0.054    19.670     6.314
    28   6 C        3.822     0.062    19.520     6.287
    29  35 Br       1.062    -0.190   190.322    22.244
    30  35 Br       1.062    -0.189   190.299    22.242
    31   7 N        1.837    -0.245    27.230     7.733
    32   7 N        1.837    -0.259    27.582     7.783
    33   7 N        1.838    -0.259    27.585     7.783
    34   7 N        1.837    -0.245    27.245     7.735
    35   1 H        0.924     0.042     2.424     2.435
    36   1 H        0.924     0.035     2.513     2.479
    37   1 H        0.924     0.039     2.465     2.455
    38   1 H        0.924     0.040     2.449     2.447
    39   1 H        0.924     0.039     2.467     2.456
    40   1 H        0.924     0.040     2.454     2.450
    41   1 H        0.924     0.035     2.514     2.479
    42   1 H        0.924     0.042     2.423     2.434
    43   1 H        0.924     0.054     2.274     2.358
    44   1 H        0.924     0.042     2.423     2.434
    45   1 H        0.924     0.032     2.557     2.501
    46   1 H        0.924     0.033     2.543     2.494
    47   1 H        0.924     0.033     2.550     2.497
    48   1 H        0.924     0.032     2.561     2.502
    49   1 H        0.924     0.043     2.406     2.426
    50   1 H        0.924     0.054     2.272     2.357
    51   1 H        0.926     0.073     2.054     2.241
    52   1 H        0.926     0.072     2.062     2.246
    53   1 H        0.926     0.086     1.918     2.166
    54   1 H        0.926     0.067     2.119     2.276
    55   1 H        0.926     0.066     2.125     2.280
    56   1 H        0.926     0.086     1.923     2.168
    57   1 H        0.923     0.012     2.860     2.645
    58   1 H        0.924     0.015     2.804     2.619
    59   1 H        0.924     0.015     2.817     2.625
    60   1 H        0.924     0.013     2.850     2.640
    61   1 H        0.922     0.007     2.943     2.683
    62   1 H        0.923     0.056     2.245     2.343
    63   1 H        0.923     0.054     2.276     2.359
    64   1 H        0.923     0.009     2.909     2.667

Wiberg/Mayer (AO) data.
largest (>0.10) Wiberg bond orders for each atom

     #   Z sym  total        # sym  WBO       # sym  WBO       # sym  WBO
 ---------------------------------------------------------------------------
     1   6 C    3.997 --     2 C    1.009     5 C    1.009    36 H    0.977
                            35 H    0.976
     2   6 C    3.997 --     1 C    1.009     6 C    1.007    38 H    0.977
                            37 H    0.976
     3   6 C    3.997 --     4 C    1.009     7 C    1.007    40 H    0.977
                            39 H    0.976
     4   6 C    3.997 --     3 C    1.009     8 C    1.009    41 H    0.977
                            42 H    0.976
     5   6 C    3.992 --     1 C    1.009    25 C    0.986    44 H    0.974
                            43 H    0.974
     6   6 C    3.996 --     2 C    1.007    26 C    0.984    45 H    0.975
                            46 H    0.973
     7   6 C    3.997 --     3 C    1.007    27 C    0.984    48 H    0.974
                            47 H    0.974
     8   6 C    3.992 --     4 C    1.009    28 C    0.987    50 H    0.974
                            49 H    0.974
     9   6 C    3.985 --    19 C    1.401    21 C    1.376    51 H    0.961
    10   6 C    3.985 --    22 C    1.402    20 C    1.377    52 H    0.961
    11   6 C    3.979 --    23 C    1.433    19 C    1.353    53 H    0.961
    12   6 C    3.978 --    24 C    1.412    20 C    1.374    54 H    0.964
    13   6 C    3.977 --    23 C    1.410    21 C    1.375    55 H    0.964
    14   6 C    3.979 --    24 C    1.431    22 C    1.355    56 H    0.961
    15   6 C    3.968 --    31 N    1.842    19 C    1.076    57 H    0.938
    16   6 C    3.968 --    32 N    1.836    20 C    1.076    58 H    0.938
    17   6 C    3.967 --    33 N    1.834    21 C    1.075    59 H    0.939
    18   6 C    3.967 --    34 N    1.848    22 C    1.072    60 H    0.937
    19   6 C    3.989 --     9 C    1.401    11 C    1.353    15 C    1.076
    20   6 C    3.988 --    10 C    1.377    12 C    1.374    16 C    1.076
    21   6 C    3.988 --     9 C    1.376    13 C    1.375    17 C    1.075
    22   6 C    3.989 --    10 C    1.402    14 C    1.355    18 C    1.072
    23   6 C    3.933 --    11 C    1.433    13 C    1.410    29 Br   0.966
    24   6 C    3.934 --    14 C    1.431    12 C    1.412    30 Br   0.966
    25   6 C    3.977 --    31 N    1.024     5 C    0.986    61 H    0.953
                            26 C    0.918
    26   6 C    3.977 --    32 N    1.031     6 C    0.984    62 H    0.939
                            25 C    0.918
    27   6 C    3.978 --    33 N    1.031     7 C    0.984    63 H    0.943
                            28 C    0.917
    28   6 C    3.977 --    34 N    1.022     8 C    0.987    64 H    0.953
                            27 C    0.917
    29  35 Br   1.090 --    23 C    0.966
    30  35 Br   1.090 --    24 C    0.966
    31   7 N    3.074 --    15 C    1.842    25 C    1.024
    32   7 N    3.091 --    16 C    1.836    26 C    1.031
    33   7 N    3.090 --    17 C    1.834    27 C    1.031
    34   7 N    3.074 --    18 C    1.848    28 C    1.022
    35   1 H    0.997 --     1 C    0.976
    36   1 H    0.999 --     1 C    0.977
    37   1 H    0.998 --     2 C    0.976
    38   1 H    0.998 --     2 C    0.977
    39   1 H    0.998 --     3 C    0.976
    40   1 H    0.998 --     3 C    0.977
    41   1 H    0.999 --     4 C    0.977
    42   1 H    0.997 --     4 C    0.976
    43   1 H    0.997 --     5 C    0.974
    44   1 H    0.997 --     5 C    0.974
    45   1 H    0.999 --     6 C    0.975
    46   1 H    0.998 --     6 C    0.973
    47   1 H    0.998 --     7 C    0.974
    48   1 H    0.999 --     7 C    0.974
    49   1 H    0.996 --     8 C    0.974
    50   1 H    0.997 --     8 C    0.974
    51   1 H    0.994 --     9 C    0.961
    52   1 H    0.994 --    10 C    0.961
    53   1 H    0.992 --    11 C    0.961
    54   1 H    0.995 --    12 C    0.964
    55   1 H    0.995 --    13 C    0.964
    56   1 H    0.992 --    14 C    0.961
    57   1 H    0.999 --    15 C    0.938
    58   1 H    0.999 --    16 C    0.938
    59   1 H    0.999 --    17 C    0.939
    60   1 H    0.999 --    18 C    0.937
    61   1 H    1.000 --    25 C    0.953
    62   1 H    0.993 --    26 C    0.939
    63   1 H    0.994 --    27 C    0.943
    64   1 H    0.999 --    28 C    0.953
 ---------------------------------------------------------------------------

molecular dipole:
                 x           y           z       tot (Debye)
 q only:        0.029      -0.006      -0.173
   full:        0.083      -0.044      -0.228       0.627

           -------------------------------------------------
          | TOTAL ENERGY              -95.154641589008 Eh   |
          | GRADIENT NORM               0.000158215768 Eh/α |
          | HOMO-LUMO GAP               2.219683059761 eV   |
           -------------------------------------------------

 * finished run on 2022/04/01 at 14:30:01.236
