   * xtb version 6.4.1 (23d549d) compiled by 'conda@3c73975816cd' on 2022-01-07
          program call               : xtb JYKSSIDNHAGOTC-XTVBVBRTSA-N_ETKDG_MMFF.xyz --opt --gfn 2 --alpb chcl3 --cycles 10000
          number of atoms            :                   128
          number of electrons        :                   352
          charge                     :                     0

   ID    Z sym.   atoms
    1    6 C      1-56
    2   35 Br     57-60
    3    7 N      61-68
    4    1 H      69-128

        Solvent                        chcl3
        Solvent mass                       1.1938E+02 g/mol
          :  Hamiltonian                  GFN2-xTB          :
 * total energy  :  -190.2673504 Eh     change       -0.6220290E-08 Eh
 * total energy  :  -190.2916969 Eh     change       -0.2434647E-01 Eh
 * total energy  :  -190.2989781 Eh     change       -0.7281176E-02 Eh
 * total energy  :  -190.3010937 Eh     change       -0.2115688E-02 Eh
 * total energy  :  -190.3025117 Eh     change       -0.1417968E-02 Eh
 * total energy  :  -190.3034776 Eh     change       -0.9658732E-03 Eh
 * total energy  :  -190.3042242 Eh     change       -0.7466465E-03 Eh
 * total energy  :  -190.3047768 Eh     change       -0.5525890E-03 Eh
 * total energy  :  -190.3051859 Eh     change       -0.4090926E-03 Eh
 * total energy  :  -190.3055133 Eh     change       -0.3274181E-03 Eh
 * total energy  :  -190.3079207 Eh     change       -0.9754477E-05 Eh
 * total energy  :  -190.3079276 Eh     change       -0.6902412E-05 Eh
 * total energy  :  -190.3079330 Eh     change       -0.5408867E-05 Eh
 * total energy  :  -190.3079389 Eh     change       -0.5940913E-05 Eh
 * total energy  :  -190.3079456 Eh     change       -0.6681163E-05 Eh
 * total energy  :  -190.3079537 Eh     change       -0.8079323E-05 Eh
 * total energy  :  -190.3079628 Eh     change       -0.9081429E-05 Eh
 * total energy  :  -190.3079709 Eh     change       -0.8138940E-05 Eh
 * total energy  :  -190.3079737 Eh     change       -0.2774423E-05 Eh
   *** GEOMETRY OPTIMIZATION CONVERGED AFTER 68 ITERATIONS ***

 final structure:
================
128
 xtb: 6.4.1 (23d549d)
C        -4.12104035978607   -2.38586894511668    3.29240639886056
C        -2.67175402905389   -2.84195227973882    3.40013750773689
C        -3.37954979597817    9.84182107958097   -1.11036546870321
C        -2.07362291522360    9.63297893043702   -1.88629495093596
C        -2.00661040073041   -9.50746176911040   -2.21253960405720
C        -0.82729483879116  -10.09705254308553   -1.44482570410612
C         4.05309286389929    0.92076881369604    3.01125561297877
C         5.39637827741552    0.46005812126481    2.41674896152729
C        -4.35833677028467   -1.76981877479052    1.92031374903275
C        -1.74885835320569   -1.63997065774213    3.25363932588194
C        -3.84491685177437    8.54850395320506   -0.43211106218603
C        -2.00794765634891    8.21828530698917   -2.44773495139196
C        -2.08133739899935   -7.99887927818314   -2.00305195192588
C         0.47675065251048   -9.43116045750926   -1.87108998966402
C         2.86730420607541    0.17713969739203    2.40311008142319
C         5.22828943640024   -0.72503720546819    1.47213420049834
C        -3.56885555073431    4.11888555568240    2.00320822341721
C        -0.45042040680642   -3.14778327026052   -1.47840683985777
C         1.61523420324416    4.09137531879089   -0.33228623269997
C         3.29947019557590   -4.15233693318861   -1.48202338832467
C        -4.13761926853781    2.96952131799633    4.03975673029103
C         0.76514396927691   -1.12451145390125   -1.97504424330783
C        -3.77957902214002    5.36514632372219    4.04763794271579
C         0.96731638999763   -3.03980684646564   -3.42560020467763
C         2.18622101508909    6.41394881016094   -0.62438929978245
C         3.72005417854040   -5.72537629078286   -3.25682490782311
C         3.90619036485989    4.79848555007676   -0.11374036003899
C         4.89627268629540   -3.61346414050731   -3.20162618441883
C        -3.75911570275878    1.68717505859025    1.93315120613259
C        -0.66315451640778   -1.16049086122414    0.00907748037015
C        -3.10437930246185    6.53577313229351    1.96181504530604
C        -0.15892081854613   -5.15260729494187   -2.92591531393456
C        -0.16764112549608    5.71317026897282   -0.89206838268396
C         1.99008823599533   -6.22875525887247   -1.54896130744332
C         3.37939263768715    2.42626818126823    0.24657065107277
C         4.48210829345577   -1.97753948322275   -1.40102498102710
C        -3.85702099163989    2.93516883083165    2.67220124702592
C        -0.12043138853422   -1.83383659330051   -1.16017389580036
C        -3.50532911671359    5.33275234098159    2.68177975467742
C         0.08890073749310   -3.75495895752817   -2.60870431332084
C         1.22660500117752    5.39850369864004   -0.60563920501800
C         3.03688175739070   -5.37525731070738   -2.08991466909367
C         2.95115556590985    3.78232234582502   -0.08133054727540
C         4.22211338332980   -3.26489228170767   -2.03204582449920
C        -4.10920417499750    4.18531335133243    4.69408379193797
C         1.29537240018723   -1.74202891842241   -3.08893342262280
C         3.50565756211075    6.09543653872860   -0.38009107630276
C         4.63688268247495   -4.84025508819219   -3.78759281426816
C        -3.43585716274147   -0.58201726743496    1.65037114014274
C        -1.94223532209963   -0.92004053088488    1.91718114693300
C        -2.63924646032194    7.68873195798805   -0.03644911669891
C        -1.94176922496991    7.17605517615701   -1.31845736904823
C        -0.78710031597746   -7.32555945509286   -2.44873180382749
C         0.41544348535040   -7.92371334920698   -1.64379230679040
C         2.90859007588689    0.17755537126210    0.86468719194500
C         4.24066004023172   -0.41651410080488    0.33572758848522
Br       -4.50910149191330    4.24280404021281    6.56767747157931
Br        2.53327904561435   -0.77892374319307   -4.18208414913500
Br        4.82587096695948    7.48477913750754   -0.41065067078083
Br        5.56465726145773   -5.31237676079090   -5.39649270673302
N        -3.74610258020743    0.54723725495565    2.47505059056372
N        -1.45614426811209   -1.70603739848860    0.82577168684588
N        -3.06543216268501    6.53779403825525    0.69993896976820
N        -0.81045427947136   -5.92805468538452   -2.16646484614682
N        -0.56967194057607    6.90313305409987   -1.01128421902773
N         1.59510189527668   -7.28378537047531   -2.12815147955383
N         2.54711855935132    1.48984652931483    0.40935193004094
N         3.93418231122762   -1.65961039905261   -0.30924253372861
H        -4.79769171831927   -3.23073440381990    3.43246809858909
H        -4.33143873081114   -1.64420895572765    4.06452740518438
H        -2.45351115126191   -3.56382563310019    2.61172969990165
H        -2.49436047589280   -3.31940344588728    4.36561948648181
H        -3.23126645618680   10.62017687610086   -0.35977901846448
H        -4.16443961386276   10.18306072666546   -1.78740274264382
H        -2.00496586384170   10.35848478110687   -2.69806781995780
H        -1.21455319972538    9.78605521967897   -1.23178111315994
H        -1.88908289585513   -9.71983290444809   -3.27773767489791
H        -2.93759454419791   -9.96868251988515   -1.87850941553188
H        -0.76391294924458  -11.17146348197089   -1.62567502826697
H        -0.97840681119344   -9.94399788550302   -0.37382337264098
H         3.92221239974316    1.99294749076053    2.84782839279033
H         4.04073777557745    0.75805581891973    4.08989629332495
H         6.08412381891404    0.17358103535830    3.21363481643918
H         5.86672530199667    1.28056679912892    1.87002188139958
H        -4.16577565623034   -2.51638282267724    1.14780066743386
H        -5.39281651096418   -1.43228884729722    1.82553096716737
H        -1.95810496227564   -0.92063567255658    4.04736285752944
H        -0.70402543228394   -1.94826064001669    3.33128694989105
H        -4.47537885085818    7.96074983860442   -1.10078213348456
H        -4.43176913274976    8.77537218047838    0.46027463953796
H        -1.12258679106293    8.10217348114138   -3.07513441139588
H        -2.88690823644441    8.02713669565050   -3.06439914782119
H        -2.24832731106530   -7.76830496361043   -0.94990921433240
H        -2.90899973967940   -7.57616319143813   -2.57607139716537
H         0.67022235974966   -9.61647395870342   -2.92888169727649
H         1.31463370515383   -9.83578219023900   -1.29972756553410
H         1.93713401699860    0.64781841835796    2.72661664903357
H         2.85570478635540   -0.85929052180971    2.73790478268924
H         4.86526533469966   -1.59766507053658    2.01631897432463
H         6.19279865750235   -0.99039579164968    1.03221101002309
H        -3.35685658886664    4.11958413202647    0.94587971542769
H        -1.12306504891639   -3.70037886267720   -0.84388924997726
H         0.88930452296802    3.29437755892593   -0.30270637085592
H         2.78110327495575   -3.85930247722968   -0.58265659596998
H        -4.36209497672458    2.05116672717880    4.55761007081656
H         1.03697686274056   -0.10838670709597   -1.73162906726929
H        -3.73968304680925    6.29587992348987    4.59292626051688
H         1.39490871816644   -3.50317632226867   -4.30184918628120
H         1.87319044771348    7.42369064586621   -0.83478725485210
H         3.51054128321756   -6.67477052808504   -3.72286421605245
H         4.94658375813975    4.57817649116162    0.07318778521948
H         5.60531874326991   -2.93247993965054   -3.64756463818151
H        -3.61638409507859    1.80849435083436    0.84692789906995
H        -0.32989300097683   -0.11868543699255    0.14079868471878
H        -2.82378407438742    7.40468162839393    2.57345022474918
H         0.29873921543158   -5.50898164856768   -3.86106779976977
H        -0.83929986071512    4.85041077672781   -1.00897850059443
H         1.53246082978883   -5.87036996895140   -0.61606169017628
H         4.46398182520281    2.30806798299141    0.35264789536156
H         5.17915460198525   -1.31239251662532   -1.93123508572894
H        -3.51247022375958   -0.31067532430188    0.57726622577520
H        -1.40405527693909    0.05011563858250    1.96067336836065
H        -1.93923966291860    8.30476306635138    0.54985781376966
H        -2.47166286249727    6.25556072733854   -1.62048560980489
H        -0.59035399279306   -7.52662105225719   -3.51611312506401
H         0.23325153324194   -7.69628379227588   -0.57972651621878
H         2.10532961706212   -0.48404540553479    0.51586346589047
H         4.71263698208092    0.29019274018327   -0.37058965054261

          :  Hamiltonian                  GFN2-xTB          :
         :: total energy            -190.307973704471 Eh    ::
         :: gradient norm              0.000267584541 Eh/a0 ::
         :: HOMO-LUMO gap              2.240605233514 eV    ::
         :: SCC energy              -193.091395242379 Eh    ::
         :: -> dispersion             -0.171707009068 Eh    ::
         :: -> Gsolv                  -0.085241073291 Eh    ::
         :: repulsion energy           2.779724191280 Eh    ::

    * Orbital Energies and Occupations

         #    Occupation            Energy/Eh            Energy/eV
      -------------------------------------------------------------
         1        2.0000           -0.8537405             -23.2315
       ...           ...                  ...                  ...
       164        2.0000           -0.4113664             -11.1939
       165        2.0000           -0.4102705             -11.1640
       166        2.0000           -0.4097379             -11.1495
       167        2.0000           -0.4086956             -11.1212
       168        2.0000           -0.4071752             -11.0798
       169        2.0000           -0.3949318             -10.7466
       170        2.0000           -0.3921746             -10.6716
       171        2.0000           -0.3909831             -10.6392
       172        2.0000           -0.3904183             -10.6238
       173        2.0000           -0.3893284             -10.5942
       174        2.0000           -0.3880577             -10.5596
       175        2.0000           -0.3865055             -10.5174
       176        2.0000           -0.3828488             -10.4178 (HOMO)
       177                         -0.3005081              -8.1772 (LUMO)
       178                         -0.2983202              -8.1177
       179                         -0.2969202              -8.0796
       180                         -0.2943535              -8.0098
       181                         -0.2867829              -7.8038
       182                         -0.2836529              -7.7186
       183                         -0.2828364              -7.6964
       184                         -0.2802936              -7.6272
       185                         -0.2351555              -6.3989
       186                         -0.2338935              -6.3646
       187                         -0.2323547              -6.3227
       ...                                ...                  ...
       352                          0.6607327              17.9795
      -------------------------------------------------------------
                  HL-Gap            0.0823407 Eh            2.2406 eV

     #   Z          covCN         q      C6AA      α(0)
     1   6 C        3.806    -0.060    21.651     6.624
     2   6 C        3.806    -0.060    21.658     6.625
     3   6 C        3.804    -0.061    21.672     6.628
     4   6 C        3.803    -0.061    21.674     6.628
     5   6 C        3.805    -0.061    21.676     6.628
     6   6 C        3.805    -0.062    21.680     6.629
     7   6 C        3.801    -0.057    21.603     6.617
     8   6 C        3.802    -0.056    21.576     6.613
     9   6 C        3.807    -0.058    21.615     6.618
    10   6 C        3.808    -0.057    21.591     6.615
    11   6 C        3.807    -0.055    21.563     6.610
    12   6 C        3.807    -0.061    21.658     6.625
    13   6 C        3.809    -0.063    21.700     6.631
    14   6 C        3.809    -0.062    21.686     6.629
    15   6 C        3.807    -0.056    21.574     6.612
    16   6 C        3.808    -0.054    21.535     6.606
    17   6 C        2.934    -0.028    28.688     8.784
    18   6 C        2.924    -0.020    28.506     8.756
    19   6 C        2.926    -0.027    28.678     8.782
    20   6 C        2.929    -0.029    28.720     8.789
    21   6 C        2.991    -0.026    28.638     8.778
    22   6 C        3.000    -0.031    28.759     8.797
    23   6 C        2.993    -0.031    28.774     8.799
    24   6 C        2.998    -0.033    28.798     8.803
    25   6 C        2.993    -0.027    28.663     8.782
    26   6 C        2.992    -0.026    28.653     8.781
    27   6 C        2.996    -0.033    28.801     8.803
    28   6 C        2.994    -0.029    28.725     8.792
    29   6 C        2.876     0.080    26.210     8.393
    30   6 C        2.875     0.080    26.222     8.394
    31   6 C        2.854     0.080    26.199     8.389
    32   6 C        2.874     0.082    26.163     8.385
    33   6 C        2.860     0.079    26.226     8.394
    34   6 C        2.872     0.082    26.169     8.386
    35   6 C        2.847     0.081    26.181     8.386
    36   6 C        2.857     0.082    26.158     8.383
    37   6 C        2.977     0.017    27.616     8.620
    38   6 C        2.977     0.019    27.588     8.616
    39   6 C        2.980     0.015    27.672     8.629
    40   6 C        2.977     0.015    27.669     8.628
    41   6 C        2.978     0.016    27.642     8.624
    42   6 C        2.977     0.014    27.688     8.631
    43   6 C        2.977     0.013    27.718     8.636
    44   6 C        2.979     0.015    27.683     8.631
    45   6 C        2.914     0.091    25.973     8.357
    46   6 C        2.913     0.085    26.115     8.380
    47   6 C        2.913     0.091    25.987     8.359
    48   6 C        2.913     0.091    25.975     8.357
    49   6 C        3.834     0.066    19.446     6.274
    50   6 C        3.836     0.067    19.431     6.271
    51   6 C        3.818     0.062    19.522     6.288
    52   6 C        3.826     0.055    19.630     6.305
    53   6 C        3.837     0.065    19.468     6.277
    54   6 C        3.835     0.065    19.474     6.278
    55   6 C        3.808     0.052    19.705     6.319
    56   6 C        3.813     0.057    19.616     6.304
    57  35 Br       1.064    -0.185   190.176    22.235
    58  35 Br       1.068    -0.187   190.245    22.239
    59  35 Br       1.062    -0.187   190.226    22.238
    60  35 Br       1.063    -0.183   190.135    22.233
    61   7 N        1.834    -0.246    27.265     7.738
    62   7 N        1.833    -0.242    27.160     7.723
    63   7 N        1.840    -0.259    27.578     7.782
    64   7 N        1.835    -0.258    27.558     7.779
    65   7 N        1.836    -0.250    27.363     7.752
    66   7 N        1.835    -0.263    27.675     7.796
    67   7 N        1.833    -0.259    27.590     7.784
    68   7 N        1.840    -0.263    27.693     7.799
    69   1 H        0.924     0.040     2.451     2.448
    70   1 H        0.924     0.048     2.343     2.394
    71   1 H        0.924     0.050     2.323     2.383
    72   1 H        0.924     0.040     2.451     2.448
    73   1 H        0.924     0.038     2.470     2.458
    74   1 H        0.924     0.043     2.413     2.429
    75   1 H        0.924     0.042     2.422     2.434
    76   1 H        0.924     0.044     2.396     2.421
    77   1 H        0.924     0.039     2.464     2.455
    78   1 H        0.924     0.044     2.402     2.424
    79   1 H        0.924     0.043     2.407     2.426
    80   1 H        0.924     0.040     2.446     2.446
    81   1 H        0.924     0.031     2.575     2.510
    82   1 H        0.924     0.043     2.405     2.425
    83   1 H        0.924     0.042     2.418     2.432
    84   1 H        0.924     0.030     2.579     2.512
    85   1 H        0.924     0.050     2.323     2.383
    86   1 H        0.924     0.038     2.476     2.460
    87   1 H        0.924     0.049     2.336     2.390
    88   1 H        0.924     0.038     2.478     2.462
    89   1 H        0.924     0.045     2.380     2.413
    90   1 H        0.924     0.035     2.510     2.478
    91   1 H        0.924     0.045     2.384     2.415
    92   1 H        0.924     0.045     2.379     2.412
    93   1 H        0.924     0.053     2.285     2.364
    94   1 H        0.924     0.043     2.408     2.427
    95   1 H        0.924     0.050     2.314     2.379
    96   1 H        0.924     0.043     2.413     2.429
    97   1 H        0.924     0.043     2.413     2.429
    98   1 H        0.925     0.053     2.278     2.361
    99   1 H        0.924     0.050     2.320     2.382
   100   1 H        0.924     0.031     2.566     2.505
   101   1 H        0.926     0.072     2.069     2.249
   102   1 H        0.926     0.095     1.829     2.115
   103   1 H        0.926     0.069     2.093     2.263
   104   1 H        0.926     0.069     2.097     2.264
   105   1 H        0.926     0.086     1.915     2.164
   106   1 H        0.926     0.067     2.120     2.277
   107   1 H        0.926     0.069     2.096     2.264
   108   1 H        0.926     0.060     2.202     2.321
   109   1 H        0.926     0.086     1.920     2.167
   110   1 H        0.926     0.085     1.926     2.170
   111   1 H        0.926     0.067     2.122     2.278
   112   1 H        0.926     0.071     2.069     2.250
   113   1 H        0.923     0.005     2.965     2.693
   114   1 H        0.923     0.010     2.891     2.659
   115   1 H        0.923     0.011     2.870     2.649
   116   1 H        0.923     0.005     2.966     2.693
   117   1 H        0.923     0.008     2.919     2.672
   118   1 H        0.923     0.011     2.882     2.655
   119   1 H        0.924     0.014     2.819     2.626
   120   1 H        0.923     0.011     2.879     2.653
   121   1 H        0.922    -0.005     3.150     2.776
   122   1 H        0.922    -0.007     3.192     2.794
   123   1 H        0.923     0.022     2.701     2.570
   124   1 H        0.923     0.017     2.778     2.607
   125   1 H        0.923     0.015     2.811     2.622
   126   1 H        0.923     0.017     2.775     2.605
   127   1 H        0.924     0.045     2.378     2.412
   128   1 H        0.922     0.001     3.033     2.724

Wiberg/Mayer (AO) data.
largest (>0.10) Wiberg bond orders for each atom

     #   Z sym  total        # sym  WBO       # sym  WBO       # sym  WBO
 ---------------------------------------------------------------------------
     1   6 C    3.996 --     2 C    1.010     9 C    1.009    69 H    0.976
                            70 H    0.976
     2   6 C    3.996 --     1 C    1.010    10 C    1.009    72 H    0.976
                            71 H    0.976
     3   6 C    3.995 --     4 C    1.005    11 C    1.002    73 H    0.981
                            74 H    0.979
     4   6 C    3.996 --    12 C    1.011     3 C    1.005    76 H    0.978
                            75 H    0.977
     5   6 C    3.996 --     6 C    1.009    13 C    1.008    77 H    0.977
                            78 H    0.976
     6   6 C    3.996 --     5 C    1.009    14 C    1.008    80 H    0.977
                            79 H    0.976
     7   6 C    3.997 --    15 C    1.012     8 C    1.000    81 H    0.978
                            82 H    0.977
     8   6 C    3.995 --    16 C    1.007     7 C    1.000    84 H    0.978
                            83 H    0.978
     9   6 C    3.992 --     1 C    1.009    49 C    0.984    86 H    0.975
                            85 H    0.973
    10   6 C    3.991 --     2 C    1.009    50 C    0.979    88 H    0.975
                            87 H    0.973
    11   6 C    3.988 --     3 C    1.002    89 H    0.978    90 H    0.977
                            51 C    0.963
    12   6 C    3.991 --     4 C    1.011    92 H    0.976    91 H    0.975
                            52 C    0.974
    13   6 C    3.991 --     5 C    1.008    53 C    0.984    93 H    0.974
                            94 H    0.973
    14   6 C    3.991 --     6 C    1.008    54 C    0.984    95 H    0.975
                            96 H    0.973
    15   6 C    3.988 --     7 C    1.012    97 H    0.975    98 H    0.971
                            55 C    0.959
    16   6 C    3.989 --     8 C    1.007   100 H    0.976    99 H    0.974
                            56 C    0.967
    17   6 C    3.980 --    37 C    1.396    39 C    1.377   101 H    0.961
    18   6 C    3.980 --    38 C    1.387    40 C    1.387   102 H    0.959
    19   6 C    3.981 --    41 C    1.399    43 C    1.378   103 H    0.963
    20   6 C    3.984 --    42 C    1.395    44 C    1.377   104 H    0.962
    21   6 C    3.980 --    45 C    1.431    37 C    1.353   105 H    0.962
    22   6 C    3.977 --    46 C    1.423    38 C    1.360   106 H    0.963
    23   6 C    3.978 --    45 C    1.410    39 C    1.375   107 H    0.964
    24   6 C    3.982 --    46 C    1.421    40 C    1.361   108 H    0.965
    25   6 C    3.980 --    47 C    1.432    41 C    1.353   109 H    0.961
    26   6 C    3.980 --    48 C    1.430    42 C    1.354   110 H    0.961
    27   6 C    3.978 --    47 C    1.411    43 C    1.373   111 H    0.964
    28   6 C    3.977 --    48 C    1.410    44 C    1.373   112 H    0.964
    29   6 C    3.967 --    61 N    1.841    37 C    1.082   113 H    0.934
    30   6 C    3.970 --    62 N    1.841    38 C    1.082   114 H    0.933
    31   6 C    3.967 --    63 N    1.844    39 C    1.076   115 H    0.939
    32   6 C    3.971 --    64 N    1.812    40 C    1.081   116 H    0.938
    33   6 C    3.968 --    65 N    1.846    41 C    1.077   117 H    0.937
    34   6 C    3.967 --    66 N    1.812    42 C    1.081   118 H    0.938
    35   6 C    3.969 --    67 N    1.835    43 C    1.077   119 H    0.934
    36   6 C    3.966 --    68 N    1.840    44 C    1.079   120 H    0.939
    37   6 C    3.989 --    17 C    1.396    21 C    1.353    29 C    1.082
    38   6 C    3.988 --    18 C    1.387    22 C    1.360    30 C    1.082
    39   6 C    3.988 --    17 C    1.377    23 C    1.375    31 C    1.076
    40   6 C    3.988 --    18 C    1.387    24 C    1.361    32 C    1.081
    41   6 C    3.989 --    19 C    1.399    25 C    1.353    33 C    1.077
    42   6 C    3.989 --    20 C    1.395    26 C    1.354    34 C    1.081
    43   6 C    3.988 --    19 C    1.378    27 C    1.373    35 C    1.077
    44   6 C    3.988 --    20 C    1.377    28 C    1.373    36 C    1.079
    45   6 C    3.935 --    21 C    1.431    23 C    1.410    57 Br   0.970
    46   6 C    3.933 --    22 C    1.423    24 C    1.421    58 Br   0.965
    47   6 C    3.935 --    25 C    1.432    27 C    1.411    59 Br   0.968
    48   6 C    3.935 --    26 C    1.430    28 C    1.410    60 Br   0.971
    49   6 C    3.974 --    61 N    1.023     9 C    0.984   121 H    0.951
                            50 C    0.919
    50   6 C    3.974 --    62 N    1.026    10 C    0.979   122 H    0.951
                            49 C    0.919
    51   6 C    3.976 --    63 N    1.023    11 C    0.963   123 H    0.953
                            52 C    0.941
    52   6 C    3.978 --    65 N    1.023    12 C    0.974   124 H    0.954
                            51 C    0.941
    53   6 C    3.975 --    64 N    1.038    13 C    0.984   125 H    0.952
                            54 C    0.890
    54   6 C    3.975 --    66 N    1.038    14 C    0.984   126 H    0.952
                            53 C    0.890
    55   6 C    3.977 --    67 N    1.026    15 C    0.959   127 H    0.952
                            56 C    0.947
    56   6 C    3.979 --    68 N    1.021    16 C    0.967   128 H    0.951
                            55 C    0.947
    57  35 Br   1.095 --    45 C    0.970
    58  35 Br   1.095 --    46 C    0.965
    59  35 Br   1.093 --    47 C    0.968
    60  35 Br   1.096 --    48 C    0.971
    61   7 N    3.075 --    29 C    1.841    49 C    1.023
    62   7 N    3.077 --    30 C    1.841    50 C    1.026
    63   7 N    3.075 --    31 C    1.844    51 C    1.023
    64   7 N    3.068 --    32 C    1.812    53 C    1.038
    65   7 N    3.077 --    33 C    1.846    52 C    1.023
    66   7 N    3.066 --    34 C    1.812    54 C    1.038
    67   7 N    3.078 --    35 C    1.835    55 C    1.026
    68   7 N    3.074 --    36 C    1.840    56 C    1.021
    69   1 H    0.998 --     1 C    0.976
    70   1 H    0.998 --     1 C    0.976
    71   1 H    0.997 --     2 C    0.976
    72   1 H    0.998 --     2 C    0.976
    73   1 H    0.998 --     3 C    0.981
    74   1 H    0.997 --     3 C    0.979
    75   1 H    0.997 --     4 C    0.977
    76   1 H    0.998 --     4 C    0.978
    77   1 H    0.998 --     5 C    0.977
    78   1 H    0.997 --     5 C    0.976
    79   1 H    0.997 --     6 C    0.976
    80   1 H    0.998 --     6 C    0.977
    81   1 H    0.999 --     7 C    0.978
    82   1 H    0.998 --     7 C    0.977
    83   1 H    0.996 --     8 C    0.978
    84   1 H    0.999 --     8 C    0.978
    85   1 H    0.997 --     9 C    0.973
    86   1 H    0.998 --     9 C    0.975
    87   1 H    0.997 --    10 C    0.973
    88   1 H    0.998 --    10 C    0.975
    89   1 H    0.998 --    11 C    0.978
    90   1 H    0.997 --    11 C    0.977
    91   1 H    0.997 --    12 C    0.975
    92   1 H    0.997 --    12 C    0.976
    93   1 H    0.997 --    13 C    0.974
    94   1 H    0.997 --    13 C    0.973
    95   1 H    0.997 --    14 C    0.975
    96   1 H    0.997 --    14 C    0.973
    97   1 H    0.997 --    15 C    0.975
    98   1 H    0.996 --    15 C    0.971
    99   1 H    0.997 --    16 C    0.974
   100   1 H    0.999 --    16 C    0.976
   101   1 H    0.994 --    17 C    0.961
   102   1 H    0.990 --    18 C    0.959
   103   1 H    0.994 --    19 C    0.963
   104   1 H    0.994 --    20 C    0.962
   105   1 H    0.992 --    21 C    0.962
   106   1 H    0.995 --    22 C    0.963
   107   1 H    0.995 --    23 C    0.964
   108   1 H    0.996 --    24 C    0.965
   109   1 H    0.992 --    25 C    0.961
   110   1 H    0.992 --    26 C    0.961
   111   1 H    0.995 --    27 C    0.964
   112   1 H    0.994 --    28 C    0.964
   113   1 H    0.999 --    29 C    0.934
   114   1 H    0.999 --    30 C    0.933
   115   1 H    0.999 --    31 C    0.939
   116   1 H    0.999 --    32 C    0.938
   117   1 H    0.999 --    33 C    0.937
   118   1 H    0.999 --    34 C    0.938
   119   1 H    0.999 --    35 C    0.934
   120   1 H    0.999 --    36 C    0.939
   121   1 H    1.000 --    49 C    0.951
   122   1 H    1.000 --    50 C    0.951
   123   1 H    0.999 --    51 C    0.953
   124   1 H    1.000 --    52 C    0.954
   125   1 H    0.999 --    53 C    0.952
   126   1 H    0.999 --    54 C    0.952
   127   1 H    0.997 --    55 C    0.952
   128   1 H    1.000 --    56 C    0.951
 ---------------------------------------------------------------------------

molecular dipole:
                 x           y           z       tot (Debye)
 q only:       -1.541      -0.997       0.920
   full:       -1.390      -0.624       0.636       4.197

           -------------------------------------------------
          | TOTAL ENERGY             -190.307973704471 Eh   |
          | GRADIENT NORM               0.000267584541 Eh/α |
          | HOMO-LUMO GAP               2.240605233514 eV   |
           -------------------------------------------------

 * finished run on 2022/04/01 at 14:33:10.538
