   * xtb version 6.4.1 (23d549d) compiled by 'conda@3c73975816cd' on 2022-01-07
          program call               : xtb HPVISMWRRURKMP-GIRTXBHHSA-N_ETKDG_MMFF.xyz --opt --gfn 2 --alpb chcl3 --cycles 10000
          number of atoms            :                    96
          number of electrons        :                   264
          charge                     :                     0

   ID    Z sym.   atoms
    1    6 C      1-42
    2   35 Br     43-45
    3    7 N      46-51
    4    1 H      52-96

        Solvent                        chcl3
        Solvent mass                       1.1938E+02 g/mol
          :  Hamiltonian                  GFN2-xTB          :
 * total energy  :  -142.6954544 Eh     change       -0.4680572E-08 Eh
 * total energy  :  -142.7135999 Eh     change       -0.1814543E-01 Eh
 * total energy  :  -142.7185516 Eh     change       -0.4951772E-02 Eh
 * total energy  :  -142.7198692 Eh     change       -0.1317594E-02 Eh
 * total energy  :  -142.7207224 Eh     change       -0.8531284E-03 Eh
 * total energy  :  -142.7212718 Eh     change       -0.5494247E-03 Eh
 * total energy  :  -142.7216676 Eh     change       -0.3958471E-03 Eh
 * total energy  :  -142.7219172 Eh     change       -0.2495774E-03 Eh
 * total energy  :  -142.7220968 Eh     change       -0.1796279E-03 Eh
 * total energy  :  -142.7222574 Eh     change       -0.1605771E-03 Eh
 * total energy  :  -142.7268207 Eh     change       -0.5075806E-04 Eh
 * total energy  :  -142.7268550 Eh     change       -0.3431363E-04 Eh
 * total energy  :  -142.7268736 Eh     change       -0.1859989E-04 Eh
 * total energy  :  -142.7268891 Eh     change       -0.1546103E-04 Eh
 * total energy  :  -142.7269010 Eh     change       -0.1190393E-04 Eh
 * total energy  :  -142.7269084 Eh     change       -0.7395388E-05 Eh
 * total energy  :  -142.7269141 Eh     change       -0.5695480E-05 Eh
 * total energy  :  -142.7269196 Eh     change       -0.5537286E-05 Eh
 * total energy  :  -142.7269217 Eh     change       -0.2100398E-05 Eh
   *** GEOMETRY OPTIMIZATION CONVERGED AFTER 68 ITERATIONS ***

 final structure:
================
96
 xtb: 6.4.1 (23d549d)
C        -5.97816084959420   -2.36222477348684    2.32429066741783
C        -6.56020717870849   -1.58353059001095    1.15095012200698
C         5.16199636726897   -5.80659106984487   -2.33736362259983
C         6.19893333987754   -4.68084913077069   -2.24134573619585
C         2.12302744448913    7.75404552488145   -1.96002343326914
C         3.16910764231605    6.72029936671712   -2.36835835856487
C        -4.79305937157845   -1.59475824458140    2.89978025284498
C        -5.50889638016915   -1.44793651410381    0.05766915240090
C         3.86835290736386   -5.29191520560590   -2.95662447669412
C         5.53707301638967   -3.32204144080945   -1.98130220654863
C         0.75615184425219    7.10083490515151   -1.78202365787377
C         3.22851988499435    5.57982562577045   -1.35709761659125
C        -0.78408163751176   -3.98950195183290    0.54478777466558
C        -2.57674171394032    3.67832315030132    0.21663358725807
C         2.57135302117307    0.30969506398847   -0.16442306341307
C        -1.51855879369826   -5.70237305829726    2.06488194118526
C        -4.75227303531316    3.52703193261393    1.23601904475805
C         0.41826986831730   -6.07033241697695    0.65936856162054
C        -3.53359135488965    5.61915400011038    1.26456846676362
C         2.00921207349142   -0.66722681885759    1.96474288972708
C         1.47203997760082    1.64448934501892    1.51283183370414
C        -2.71784403858468   -3.52596639501390    2.00612246441810
C        -3.66340382959782    1.49383100125710    0.28900129077257
C         1.19556691420581   -4.27485574912127   -0.87696006034486
C        -1.23344728143817    5.73263323061559    0.32298927621681
C         3.19787704952380   -2.04773630572491    0.31026312072479
C         2.00535663248807    2.66404000906577   -0.67504061935416
C        -1.67074148418001   -4.42661183283466    1.52697948031671
C        -3.68927207272783    2.92056965825671    0.56428590290318
C         0.26224115889050   -4.79379238051081    0.11276757332877
C        -2.47728878166960    5.01667159605977    0.58413563769235
C         2.58620521811144   -0.78421240345236    0.69999075750523
C         2.02781216008135    1.52524044389091    0.23742375544923
C        -0.47960230755417   -6.50061345444716    1.61530875987475
C        -4.66104471814143    4.86813066265251    1.55222693830029
C         1.45729878074385    0.54267320436526    2.34382393414473
C        -3.69696626971807   -1.32913513689593    1.86394427499242
C        -4.25041837247082   -0.72456022114796    0.54287171932811
C         3.19894025647382   -4.23856038029007   -2.06284081165847
C         4.24754579593404   -3.49963481162250   -1.18375895315308
C         0.83740030401161    5.97898848022101   -0.73967590782551
C         1.84948017232578    4.92411577272608   -1.21826538736507
Br       -0.27629903524088   -8.25563324021341    2.36018390696206
Br       -6.12760117816685    5.71440006510502    2.45067120427230
Br        0.64431912133817    0.68943380837045    4.07302697375519
N        -2.81404745482841   -2.38393632329961    1.48170056383778
N        -4.49567482624496    0.67093829656132    0.76162197457778
N         2.27856236039495   -4.85887738697446   -1.16015816417895
N        -0.43559885051781    5.33861716689866   -0.57138963563826
N         3.68970126707241   -2.22995235955253   -0.83937557080150
N         1.89991084449010    3.85248381853282   -0.26511257534008
H        -6.73345547840597   -2.49933262830612    3.10090544959829
H        -5.66207782380871   -3.35080167969535    1.98184983611790
H        -6.86350395343130   -0.59051083752581    1.48525799136878
H        -7.43740938548495   -2.09653389108399    0.75190272724877
H         5.55951624033914   -6.62538771516899   -2.93873916028857
H         4.93938458043935   -6.20289962783932   -1.34581612300089
H         6.90181809168614   -4.90979214166159   -1.43846161520072
H         6.76905494383353   -4.62179280161002   -3.16987138260816
H         2.05673451455369    8.53520607827148   -2.71963762295293
H         2.42412363388184    8.22267735743205   -1.02031172635163
H         4.14999103197851    7.19374290560057   -2.44067558189281
H         2.91635440582205    6.31760109925795   -3.35189661060435
H        -4.36061289671434   -2.12210721599595    3.75354314504578
H        -5.14232127467126   -0.62309257933116    3.25323269273011
H        -5.91534685163310   -0.89806387957179   -0.79398121636077
H        -5.21091996715583   -2.44064444348265   -0.28863281148886
H         3.16510442030656   -6.11414480265569   -3.09788991227003
H         4.07956163858653   -4.85357958395679   -3.93260343097384
H         5.28864369645620   -2.82187923336612   -2.91792360475539
H         6.21217490335097   -2.66818621207799   -1.42684498078976
H         0.02109821299620    7.83912667532415   -1.45350363344773
H         0.40991496602507    6.67891078004961   -2.72769490596160
H         3.54110479002847    5.95239139640541   -0.37978489767943
H         3.95062862077656    4.82495898454857   -1.67646478451753
H        -0.92182593602566   -2.99806554979553    0.14301061839054
H        -1.74725828061149    3.23412842933506   -0.31053737381221
H         3.01045633464763    0.19367793080782   -1.14293624760061
H        -2.19687068965816   -6.06330027959743    2.82328918323577
H        -5.61448361945791    2.93744713718875    1.50185804076622
H         1.23360582891372   -6.69097451918325    0.32454863487545
H        -3.47781764833967    6.65672548177726    1.55721937568103
H         1.99074442065103   -1.51209943334129    2.63670980306951
H         1.05535113015668    2.59096480681508    1.81726224064280
H        -3.33944185099004   -3.90035735058202    2.82659776336672
H        -2.80697088711323    1.16067430370731   -0.31859548531498
H         0.90474784443640   -3.32246034433270   -1.34500526734589
H        -1.02291104806842    6.59096103817400    0.97754634586509
H         3.21385517270039   -2.82985372030743    1.08431766262269
H         2.07841032944100    2.41199939413207   -1.74355936073206
H        -3.01747863002881   -0.56855926286011    2.28201474130594
H        -3.45286502664808   -0.86326307900080   -0.21233602111562
H         2.69856576991733   -3.47270514514305   -2.68153210535820
H         4.43554494281566   -4.11377683123866   -0.28659952868185
H         1.18969486339931    6.40625715507977    0.21363535789577
H         1.52995231295041    4.55360930195956   -2.20758816505268

          :  Hamiltonian                  GFN2-xTB          :
         :: total energy            -142.726921706371 Eh    ::
         :: gradient norm              0.000274020297 Eh/a0 ::
         :: HOMO-LUMO gap              2.225276602605 eV    ::
         :: SCC energy              -144.815378704482 Eh    ::
         :: -> dispersion             -0.118485747193 Eh    ::
         :: -> Gsolv                  -0.067615254310 Eh    ::
         :: repulsion energy           2.086820217818 Eh    ::

    * Orbital Energies and Occupations

         #    Occupation            Energy/Eh            Energy/eV
      -------------------------------------------------------------
         1        2.0000           -0.8488977             -23.0997
       ...           ...                  ...                  ...
       120        2.0000           -0.4178783             -11.3710
       121        2.0000           -0.4159947             -11.3198
       122        2.0000           -0.4134881             -11.2516
       123        2.0000           -0.4110119             -11.1842
       124        2.0000           -0.4080002             -11.1023
       125        2.0000           -0.4073173             -11.0837
       126        2.0000           -0.4061347             -11.0515
       127        2.0000           -0.3922764             -10.6744
       128        2.0000           -0.3892943             -10.5932
       129        2.0000           -0.3877268             -10.5506
       130        2.0000           -0.3874005             -10.5417
       131        2.0000           -0.3833460             -10.4314
       132        2.0000           -0.3793794             -10.3234 (HOMO)
       133                         -0.2976020              -8.0982 (LUMO)
       134                         -0.2941072              -8.0031
       135                         -0.2917265              -7.9383
       136                         -0.2825232              -7.6878
       137                         -0.2800176              -7.6197
       138                         -0.2773538              -7.5472
       139                         -0.2331445              -6.3442
       140                         -0.2322342              -6.3194
       141                         -0.2303901              -6.2692
       142                         -0.2178886              -5.9291
       143                         -0.2155208              -5.8646
       ...                                ...                  ...
       264                          0.6712692              18.2662
      -------------------------------------------------------------
                  HL-Gap            0.0817774 Eh            2.2253 eV

     #   Z          covCN         q      C6AA      α(0)
     1   6 C        3.805    -0.054    21.546     6.608
     2   6 C        3.806    -0.060    21.657     6.625
     3   6 C        3.803    -0.061    21.672     6.628
     4   6 C        3.804    -0.062    21.683     6.629
     5   6 C        3.805    -0.061    21.668     6.627
     6   6 C        3.805    -0.061    21.666     6.626
     7   6 C        3.805    -0.066    21.754     6.640
     8   6 C        3.807    -0.055    21.556     6.609
     9   6 C        3.807    -0.061    21.676     6.628
    10   6 C        3.807    -0.061    21.670     6.627
    11   6 C        3.808    -0.057    21.587     6.614
    12   6 C        3.808    -0.057    21.595     6.615
    13   6 C        2.932    -0.029    28.727     8.790
    14   6 C        2.934    -0.027    28.665     8.781
    15   6 C        2.926    -0.027    28.680     8.783
    16   6 C        2.992    -0.032    28.793     8.802
    17   6 C        2.991    -0.026    28.647     8.780
    18   6 C        2.992    -0.027    28.677     8.784
    19   6 C        2.993    -0.031    28.772     8.799
    20   6 C        2.995    -0.032    28.782     8.800
    21   6 C        2.994    -0.026    28.639     8.779
    22   6 C        2.839     0.078    26.260     8.398
    23   6 C        2.876     0.080    26.218     8.394
    24   6 C        2.865     0.081    26.198     8.390
    25   6 C        2.860     0.082    26.172     8.385
    26   6 C        2.863     0.081    26.180     8.387
    27   6 C        2.864     0.081    26.185     8.388
    28   6 C        2.984     0.014    27.685     8.631
    29   6 C        2.977     0.017    27.620     8.621
    30   6 C        2.978     0.015    27.670     8.629
    31   6 C        2.980     0.016    27.639     8.624
    32   6 C        2.978     0.014    27.685     8.631
    33   6 C        2.978     0.019    27.588     8.616
    34   6 C        2.914     0.090    25.993     8.360
    35   6 C        2.914     0.091    25.974     8.357
    36   6 C        2.913     0.090    25.995     8.361
    37   6 C        3.800     0.058    19.606     6.304
    38   6 C        3.837     0.058    19.584     6.296
    39   6 C        3.829     0.062    19.515     6.286
    40   6 C        3.828     0.065    19.473     6.279
    41   6 C        3.825     0.057    19.600     6.300
    42   6 C        3.831     0.056    19.609     6.300
    43  35 Br       1.063    -0.187   190.250    22.240
    44  35 Br       1.063    -0.187   190.225    22.238
    45  35 Br       1.063    -0.189   190.287    22.242
    46   7 N        1.841    -0.252    27.415     7.760
    47   7 N        1.832    -0.247    27.301     7.743
    48   7 N        1.837    -0.255    27.490     7.770
    49   7 N        1.836    -0.253    27.436     7.762
    50   7 N        1.836    -0.258    27.555     7.779
    51   7 N        1.834    -0.249    27.343     7.749
    52   1 H        0.924     0.036     2.502     2.474
    53   1 H        0.924     0.030     2.584     2.514
    54   1 H        0.924     0.050     2.316     2.380
    55   1 H        0.924     0.037     2.491     2.468
    56   1 H        0.924     0.042     2.421     2.433
    57   1 H        0.924     0.043     2.414     2.430
    58   1 H        0.924     0.038     2.479     2.462
    59   1 H        0.924     0.043     2.415     2.430
    60   1 H        0.924     0.044     2.403     2.424
    61   1 H        0.924     0.040     2.448     2.447
    62   1 H        0.924     0.044     2.401     2.423
    63   1 H        0.924     0.040     2.449     2.447
    64   1 H        0.924     0.032     2.556     2.500
    65   1 H        0.924     0.048     2.348     2.396
    66   1 H        0.924     0.038     2.472     2.459
    67   1 H        0.924     0.037     2.495     2.470
    68   1 H        0.924     0.048     2.343     2.394
    69   1 H        0.924     0.046     2.366     2.406
    70   1 H        0.924     0.049     2.327     2.386
    71   1 H        0.924     0.041     2.434     2.440
    72   1 H        0.924     0.036     2.507     2.476
    73   1 H        0.924     0.044     2.402     2.424
    74   1 H        0.924     0.045     2.384     2.415
    75   1 H        0.924     0.036     2.503     2.474
    76   1 H        0.926     0.071     2.078     2.254
    77   1 H        0.926     0.069     2.095     2.263
    78   1 H        0.926     0.077     2.005     2.214
    79   1 H        0.926     0.069     2.094     2.263
    80   1 H        0.926     0.085     1.930     2.173
    81   1 H        0.926     0.084     1.943     2.180
    82   1 H        0.926     0.069     2.095     2.263
    83   1 H        0.926     0.064     2.150     2.293
    84   1 H        0.926     0.079     1.987     2.204
    85   1 H        0.924     0.018     2.759     2.598
    86   1 H        0.923     0.008     2.922     2.673
    87   1 H        0.923     0.003     3.003     2.710
    88   1 H        0.923     0.013     2.838     2.634
    89   1 H        0.923     0.003     3.010     2.713
    90   1 H        0.923     0.015     2.804     2.619
    91   1 H        0.923     0.046     2.365     2.405
    92   1 H        0.922     0.014     2.825     2.629
    93   1 H        0.923     0.012     2.857     2.643
    94   1 H        0.923     0.016     2.801     2.617
    95   1 H        0.923     0.022     2.699     2.569
    96   1 H        0.923     0.020     2.738     2.588

Wiberg/Mayer (AO) data.
largest (>0.10) Wiberg bond orders for each atom

     #   Z sym  total        # sym  WBO       # sym  WBO       # sym  WBO
 ---------------------------------------------------------------------------
     1   6 C    3.998 --     2 C    1.009     7 C    1.009    52 H    0.977
                            53 H    0.976
     2   6 C    3.997 --     8 C    1.010     1 C    1.009    55 H    0.976
                            54 H    0.975
     3   6 C    3.996 --     9 C    1.010     4 C    1.005    57 H    0.978
                            56 H    0.977
     4   6 C    3.996 --     3 C    1.005    10 C    1.003    58 H    0.981
                            59 H    0.980
     5   6 C    3.996 --     6 C    1.009    11 C    1.007    61 H    0.977
                            60 H    0.975
     6   6 C    3.996 --     5 C    1.009    12 C    1.007    63 H    0.977
                            62 H    0.975
     7   6 C    3.996 --     1 C    1.009    37 C    0.985    65 H    0.974
                            64 H    0.971
     8   6 C    3.993 --     2 C    1.010    38 C    0.982    66 H    0.975
                            67 H    0.975
     9   6 C    3.991 --     3 C    1.010    39 C    0.978    69 H    0.976
                            68 H    0.973
    10   6 C    3.990 --     4 C    1.003    40 C    0.979    70 H    0.977
                            71 H    0.976
    11   6 C    3.989 --     5 C    1.007    73 H    0.976    72 H    0.975
                            41 C    0.967
    12   6 C    3.989 --     6 C    1.007    74 H    0.976    75 H    0.976
                            42 C    0.967
    13   6 C    3.981 --    30 C    1.401    28 C    1.376    76 H    0.961
    14   6 C    3.981 --    29 C    1.393    31 C    1.380    77 H    0.962
    15   6 C    3.981 --    33 C    1.401    32 C    1.377    78 H    0.962
    16   6 C    3.977 --    34 C    1.408    28 C    1.378    79 H    0.964
    17   6 C    3.981 --    35 C    1.430    29 C    1.355    80 H    0.962
    18   6 C    3.980 --    34 C    1.434    30 C    1.351    81 H    0.962
    19   6 C    3.979 --    35 C    1.411    31 C    1.376    82 H    0.965
    20   6 C    3.979 --    36 C    1.415    32 C    1.370    83 H    0.965
    21   6 C    3.980 --    36 C    1.428    33 C    1.357    84 H    0.963
    22   6 C    3.967 --    46 N    1.842    28 C    1.071    85 H    0.938
    23   6 C    3.966 --    47 N    1.844    29 C    1.082    86 H    0.934
    24   6 C    3.968 --    48 N    1.836    30 C    1.079    87 H    0.937
    25   6 C    3.968 --    49 N    1.855    31 C    1.071    88 H    0.937
    26   6 C    3.967 --    50 N    1.832    32 C    1.081    89 H    0.938
    27   6 C    3.967 --    51 N    1.856    33 C    1.070    90 H    0.935
    28   6 C    3.988 --    16 C    1.378    13 C    1.376    22 C    1.071
    29   6 C    3.989 --    14 C    1.393    17 C    1.355    23 C    1.082
    30   6 C    3.989 --    13 C    1.401    18 C    1.351    24 C    1.079
    31   6 C    3.988 --    14 C    1.380    19 C    1.376    25 C    1.071
    32   6 C    3.988 --    15 C    1.377    20 C    1.370    26 C    1.081
    33   6 C    3.989 --    15 C    1.401    21 C    1.357    27 C    1.070
    34   6 C    3.934 --    18 C    1.434    16 C    1.408    43 Br   0.968
    35   6 C    3.934 --    17 C    1.430    19 C    1.411    44 Br   0.968
    36   6 C    3.934 --    21 C    1.428    20 C    1.415    45 Br   0.966
    37   6 C    3.974 --    46 N    1.029     7 C    0.985    91 H    0.931
                            38 C    0.928
    38   6 C    3.976 --    47 N    1.022     8 C    0.982    92 H    0.950
                            37 C    0.928
    39   6 C    3.973 --    48 N    1.027     9 C    0.978    93 H    0.954
                            40 C    0.913
    40   6 C    3.973 --    50 N    1.028    10 C    0.979    94 H    0.953
                            39 C    0.913
    41   6 C    3.979 --    49 N    1.018    11 C    0.967    42 C    0.956
                            95 H    0.952
    42   6 C    3.979 --    51 N    1.019    12 C    0.967    41 C    0.956
                            96 H    0.952
    43  35 Br   1.093 --    34 C    0.968
    44  35 Br   1.093 --    35 C    0.968
    45  35 Br   1.091 --    36 C    0.966
    46   7 N    3.092 --    22 C    1.842    37 C    1.029
    47   7 N    3.074 --    23 C    1.844    38 C    1.022
    48   7 N    3.073 --    24 C    1.836    39 C    1.027
    49   7 N    3.074 --    25 C    1.855    41 C    1.018
    50   7 N    3.073 --    26 C    1.832    40 C    1.028
    51   7 N    3.074 --    27 C    1.856    42 C    1.019
    52   1 H    0.999 --     1 C    0.977
    53   1 H    0.999 --     1 C    0.976
    54   1 H    0.997 --     2 C    0.975
    55   1 H    0.998 --     2 C    0.976
    56   1 H    0.998 --     3 C    0.977
    57   1 H    0.998 --     3 C    0.978
    58   1 H    0.999 --     4 C    0.981
    59   1 H    0.997 --     4 C    0.980
    60   1 H    0.998 --     5 C    0.975
    61   1 H    0.998 --     5 C    0.977
    62   1 H    0.996 --     6 C    0.975
    63   1 H    0.998 --     6 C    0.977
    64   1 H    0.999 --     7 C    0.971
    65   1 H    0.997 --     7 C    0.974
    66   1 H    0.998 --     8 C    0.975
    67   1 H    0.998 --     8 C    0.975
    68   1 H    0.996 --     9 C    0.973
    69   1 H    0.997 --     9 C    0.976
    70   1 H    0.998 --    10 C    0.977
    71   1 H    0.996 --    10 C    0.976
    72   1 H    0.997 --    11 C    0.975
    73   1 H    0.998 --    11 C    0.976
    74   1 H    0.998 --    12 C    0.976
    75   1 H    0.997 --    12 C    0.976
    76   1 H    0.994 --    13 C    0.961
    77   1 H    0.994 --    14 C    0.962
    78   1 H    0.993 --    15 C    0.962
    79   1 H    0.995 --    16 C    0.964
    80   1 H    0.992 --    17 C    0.962
    81   1 H    0.993 --    18 C    0.962
    82   1 H    0.995 --    19 C    0.965
    83   1 H    0.995 --    20 C    0.965
    84   1 H    0.993 --    21 C    0.963
    85   1 H    0.999 --    22 C    0.938
    86   1 H    0.999 --    23 C    0.934
    87   1 H    0.999 --    24 C    0.937
    88   1 H    0.999 --    25 C    0.937
    89   1 H    0.999 --    26 C    0.938
    90   1 H    0.999 --    27 C    0.935
    91   1 H    0.992 --    37 C    0.931
    92   1 H    1.000 --    38 C    0.950
    93   1 H    1.000 --    39 C    0.954
    94   1 H    1.000 --    40 C    0.953
    95   1 H    0.999 --    41 C    0.952
    96   1 H    0.999 --    42 C    0.952
 ---------------------------------------------------------------------------

molecular dipole:
                 x           y           z       tot (Debye)
 q only:        1.198       0.659      -1.840
   full:        1.713       0.909      -2.397       7.836

           -------------------------------------------------
          | TOTAL ENERGY             -142.726921706371 Eh   |
          | GRADIENT NORM               0.000274020297 Eh/α |
          | HOMO-LUMO GAP               2.225276602605 eV   |
           -------------------------------------------------

 * finished run on 2022/04/01 at 14:31:08.705
