   * xtb version 6.4.1 (23d549d) compiled by 'conda@3c73975816cd' on 2022-01-07
          program call               : xtb SSJXIUAHEKJCMH-WDSKDSINSA-N_ETKDG_MMFF.xyz --opt --gfn 2 --alpb chcl3 --cycles 10000
          number of atoms            :                    22
          number of electrons        :                    48
          charge                     :                     0

   ID    Z sym.   atoms
    1    6 C      1-6
    2    7 N      7, 8
    3    1 H      9-22

        Solvent                        chcl3
        Solvent mass                       1.1938E+02 g/mol
          :  Hamiltonian                  GFN2-xTB          :
 * total energy  :   -25.8340913 Eh     change       -0.1072920E-10 Eh
 * total energy  :   -25.8367631 Eh     change       -0.2671777E-02 Eh
 * total energy  :   -25.8372012 Eh     change       -0.4380831E-03 Eh
 * total energy  :   -25.8373339 Eh     change       -0.1327162E-03 Eh
 * total energy  :   -25.8373961 Eh     change       -0.6223513E-04 Eh
 * total energy  :   -25.8374384 Eh     change       -0.4226489E-04 Eh
 * total energy  :   -25.8374607 Eh     change       -0.2232190E-04 Eh
 * total energy  :   -25.8374708 Eh     change       -0.1005147E-04 Eh
 * total energy  :   -25.8374746 Eh     change       -0.3802700E-05 Eh
   *** GEOMETRY OPTIMIZATION CONVERGED AFTER 9 ITERATIONS ***

 final structure:
================
22
 xtb: 6.4.1 (23d549d)
C         1.94867512648193   -0.13001436289171   -0.02412474008018
C         1.26432223559714   -1.47919932391451    0.16524441301629
C         1.07670319588555    0.98818514219744    0.53569073235049
C        -0.11036473946140   -1.47193493262092   -0.49359852544683
C        -0.30189570507302    1.00447148688314   -0.12599715112757
C        -0.99198360978049   -0.35622215403933    0.06888986179339
N        -1.10995025535680    2.05643347931678    0.49036626476299
N        -2.27210540764201   -0.36247480547698   -0.63869386737050
H         2.12050544802220    0.04327732936106   -1.08899531776595
H         2.91777672440839   -0.12773619863034    0.47869834852221
H         1.15307703710350   -1.68254432014172    1.23286120724894
H         1.87550116380683   -2.27370293799087   -0.26752113354733
H         1.56176425055737    1.95474644601637    0.37822527881635
H         0.93940862994290    0.85455287929665    1.61058681276650
H        -0.60475813578159   -2.43381961952295   -0.33652450724894
H        -0.00999395567453   -1.31971037503587   -1.57011403473569
H        -0.17934086615052    1.15991302546681   -1.21279255557427
H        -1.11914760565188   -0.50915806937924    1.15548782506719
H        -1.96090189717971    2.19187327588959   -0.04594899710800
H        -0.60019366381329    2.93421914856337    0.46213979673458
H        -2.92577642438340    0.25445696799025   -0.16734447781669
H        -2.67132054585718   -1.29561108133707   -0.60653223325695

          :  Hamiltonian                  GFN2-xTB          :
         :: total energy             -25.837474584964 Eh    ::
         :: gradient norm              0.000407235957 Eh/a0 ::
         :: HOMO-LUMO gap             10.460825894850 eV    ::
         :: SCC energy               -26.174422185808 Eh    ::
         :: -> dispersion             -0.015898630681 Eh    ::
         :: -> Gsolv                  -0.011082532387 Eh    ::
         :: repulsion energy           0.336857429577 Eh    ::

    * Orbital Energies and Occupations

         #    Occupation            Energy/Eh            Energy/eV
      -------------------------------------------------------------
         1        2.0000           -0.6425887             -17.4857
       ...           ...                  ...                  ...
        12        2.0000           -0.5051368             -13.7455
        13        2.0000           -0.5044105             -13.7257
        14        2.0000           -0.4854011             -13.2084
        15        2.0000           -0.4746080             -12.9147
        16        2.0000           -0.4666756             -12.6989
        17        2.0000           -0.4589791             -12.4895
        18        2.0000           -0.4493455             -12.2273
        19        2.0000           -0.4423379             -12.0366
        20        2.0000           -0.4250706             -11.5668
        21        2.0000           -0.4199523             -11.4275
        22        2.0000           -0.4153212             -11.3015
        23        2.0000           -0.3726944             -10.1415
        24        2.0000           -0.3653896              -9.9428 (HOMO)
        25                          0.0190387               0.5181 (LUMO)
        26                          0.0413482               1.1251
        27                          0.0765642               2.0834
        28                          0.0848925               2.3100
        29                          0.0993434               2.7033
        30                          0.1068665               2.9080
        31                          0.1188107               3.2330
        32                          0.1210347               3.2935
        33                          0.1497979               4.0762
        34                          0.1764639               4.8018
        35                          0.1825405               4.9672
       ...                                ...                  ...
        46                          0.3048563               8.2956
      -------------------------------------------------------------
                  HL-Gap            0.3844283 Eh           10.4608 eV

     #   Z          covCN         q      C6AA      α(0)
     1   6 C        3.805    -0.061    21.673     6.627
     2   6 C        3.805    -0.061    21.673     6.627
     3   6 C        3.809    -0.067    21.775     6.642
     4   6 C        3.809    -0.067    21.775     6.642
     5   6 C        3.786     0.052    19.721     6.325
     6   6 C        3.787     0.052    19.721     6.325
     7   7 N        2.633    -0.373    29.628     8.084
     8   7 N        2.633    -0.373    29.628     8.084
     9   1 H        0.924     0.036     2.503     2.474
    10   1 H        0.924     0.037     2.491     2.468
    11   1 H        0.924     0.036     2.503     2.474
    12   1 H        0.924     0.037     2.491     2.468
    13   1 H        0.924     0.032     2.551     2.498
    14   1 H        0.924     0.044     2.401     2.423
    15   1 H        0.924     0.032     2.551     2.498
    16   1 H        0.924     0.044     2.401     2.423
    17   1 H        0.922     0.009     2.911     2.668
    18   1 H        0.923     0.009     2.911     2.668
    19   1 H        0.860     0.147     1.423     1.869
    20   1 H        0.860     0.145     1.439     1.879
    21   1 H        0.860     0.147     1.423     1.869
    22   1 H        0.860     0.145     1.438     1.879

Wiberg/Mayer (AO) data.
largest (>0.10) Wiberg bond orders for each atom

     #   Z sym  total        # sym  WBO       # sym  WBO       # sym  WBO
 ---------------------------------------------------------------------------
     1   6 C    3.998 --     2 C    1.009     3 C    1.008     9 H    0.977
                            10 H    0.977
     2   6 C    3.998 --     1 C    1.009     4 C    1.008    11 H    0.977
                            12 H    0.977
     3   6 C    3.997 --     1 C    1.008     5 C    0.995    14 H    0.976
                            13 H    0.975
     4   6 C    3.997 --     2 C    1.008     6 C    0.995    16 H    0.976
                            15 H    0.975
     5   6 C    3.983 --     7 N    1.008     3 C    0.995     6 C    0.977
                            17 H    0.961
     6   6 C    3.983 --     8 N    1.008     4 C    0.995     5 C    0.977
                            18 H    0.961
     7   7 N    2.989 --     5 C    1.008    20 H    0.963    19 H    0.962
     8   7 N    2.989 --     6 C    1.008    22 H    0.963    21 H    0.962
     9   1 H    0.999 --     1 C    0.977
    10   1 H    0.998 --     1 C    0.977
    11   1 H    0.999 --     2 C    0.977
    12   1 H    0.998 --     2 C    0.977
    13   1 H    0.999 --     3 C    0.975
    14   1 H    0.998 --     3 C    0.976
    15   1 H    0.999 --     4 C    0.975
    16   1 H    0.998 --     4 C    0.976
    17   1 H    1.000 --     5 C    0.961
    18   1 H    1.000 --     6 C    0.961
    19   1 H    0.978 --     7 N    0.962
    20   1 H    0.979 --     7 N    0.963
    21   1 H    0.978 --     8 N    0.962
    22   1 H    0.979 --     8 N    0.963
 ---------------------------------------------------------------------------

molecular dipole:
                 x           y           z       tot (Debye)
 q only:        0.183      -0.092       0.008
   full:        0.078      -0.040       0.003       0.222

           -------------------------------------------------
          | TOTAL ENERGY              -25.837474584964 Eh   |
          | GRADIENT NORM               0.000407235957 Eh/α |
          | HOMO-LUMO GAP              10.460825894850 eV   |
           -------------------------------------------------

 * finished run on 2022/04/01 at 14:50:02.754
