   * xtb version 6.4.1 (23d549d) compiled by 'conda@3c73975816cd' on 2022-01-07
          program call               : xtb XLYOFNOQVPJJNP-UHFFFAOYSA-N_ETKDG_MMFF.xyz --opt --gfn 2 --alpb chcl3 --cycles 10000
          number of atoms            :                     3
          number of electrons        :                     8
          charge                     :                     0

   ID    Z sym.   atoms
    1    8 O      1
    2    1 H      2, 3

        Solvent                        chcl3
        Solvent mass                       1.1938E+02 g/mol
          :  Hamiltonian                  GFN2-xTB          :
 * total energy  :    -5.0738261 Eh     change        0.1776357E-14 Eh
 * total energy  :    -5.0739605 Eh     change       -0.1343174E-03 Eh
 * total energy  :    -5.0740086 Eh     change       -0.4811663E-04 Eh
 * total energy  :    -5.0740098 Eh     change       -0.1238737E-05 Eh
   *** GEOMETRY OPTIMIZATION CONVERGED AFTER 4 ITERATIONS ***

 final structure:
================
3
 xtb: 6.4.1 (23d549d)
O        -0.00008601881752    0.38371741820500    0.00000000000000
H        -0.77049662597883   -0.19203072535298    0.00000000000000
H         0.77058164479635   -0.19168669285201    0.00000000000000

          :  Hamiltonian                  GFN2-xTB          :
         :: total energy              -5.074009815017 Eh    ::
         :: gradient norm              0.000153491731 Eh/a0 ::
         :: HOMO-LUMO gap             14.448628633858 eV    ::
         :: SCC energy                -5.107584898838 Eh    ::
         :: -> dispersion             -0.000137108508 Eh    ::
         :: -> Gsolv                  -0.003809284649 Eh    ::
         :: repulsion energy           0.033575083793 Eh    ::

    * Orbital Energies and Occupations

         #    Occupation            Energy/Eh            Energy/eV
      -------------------------------------------------------------
         1        2.0000           -0.6891366             -18.7524
         2        2.0000           -0.5741932             -15.6246
         3        2.0000           -0.5194628             -14.1353
         4        2.0000           -0.4552115             -12.3869 (HOMO)
         5                          0.0757658               2.0617 (LUMO)
         6                          0.2409433               6.5564
      -------------------------------------------------------------
                  HL-Gap            0.5309773 Eh           14.4486 eV

     #   Z          covCN         q      C6AA      α(0)
     1   8 O        1.610    -0.605    25.298     6.788
     2   1 H        0.805     0.302     0.714     1.327
     3   1 H        0.805     0.302     0.714     1.327

Wiberg/Mayer (AO) data.
largest (>0.10) Wiberg bond orders for each atom

     #   Z sym  total        # sym  WBO       # sym  WBO       # sym  WBO
 ---------------------------------------------------------------------------
     1   8 O    1.817 --     2 H    0.909     3 H    0.909
     2   1 H    0.909 --     1 O    0.909
     3   1 H    0.909 --     1 O    0.909
 ---------------------------------------------------------------------------

molecular dipole:
                 x           y           z       tot (Debye)
 q only:        0.000      -0.658       0.000
   full:        0.000      -0.905      -0.000       2.301

           -------------------------------------------------
          | TOTAL ENERGY               -5.074009815017 Eh   |
          | GRADIENT NORM               0.000153491731 Eh/α |
          | HOMO-LUMO GAP              14.448628633858 eV   |
           -------------------------------------------------

 * finished run on 2022/04/01 at 14:50:04.216
